 Entering Gaussian System, Link 0=g16
 Initial command:
 /apps/gaussian/16/avx2/g16/l1.exe "/blue/ax/zbecerra/anna/Mn_files/BiOx/calc/Gau-276712.inp" -scrdir="/blue/ax/zbecerra/anna/Mn_files/BiOx/calc/"
 Entering Link 1 = /apps/gaussian/16/avx2/g16/l1.exe PID=    276713.
  
 Copyright (c) 1988-2019, Gaussian, Inc.  All Rights Reserved.
  
 This is part of the Gaussian(R) 16 program.  It is based on
 the Gaussian(R) 09 system (copyright 2009, Gaussian, Inc.),
 the Gaussian(R) 03 system (copyright 2003, Gaussian, Inc.),
 the Gaussian(R) 98 system (copyright 1998, Gaussian, Inc.),
 the Gaussian(R) 94 system (copyright 1995, Gaussian, Inc.),
 the Gaussian 92(TM) system (copyright 1992, Gaussian, Inc.),
 the Gaussian 90(TM) system (copyright 1990, Gaussian, Inc.),
 the Gaussian 88(TM) system (copyright 1988, Gaussian, Inc.),
 the Gaussian 86(TM) system (copyright 1986, Carnegie Mellon
 University), and the Gaussian 82(TM) system (copyright 1983,
 Carnegie Mellon University). Gaussian is a federally registered
 trademark of Gaussian, Inc.
  
 This software contains proprietary and confidential information,
 including trade secrets, belonging to Gaussian, Inc.
  
 This software is provided under written license and may be
 used, copied, transmitted, or stored only in accord with that
 written license.
  
 The following legend is applicable only to US Government
 contracts under FAR:
  
                    RESTRICTED RIGHTS LEGEND
  
 Use, reproduction and disclosure by the US Government is
 subject to restrictions as set forth in subparagraphs (a)
 and (c) of the Commercial Computer Software - Restricted
 Rights clause in FAR 52.227-19.
  
 Gaussian, Inc.
 340 Quinnipiac St., Bldg. 40, Wallingford CT 06492
  
  
 ---------------------------------------------------------------
 Warning -- This program may not be used in any manner that
 competes with the business of Gaussian, Inc. or will provide
 assistance to any competitor of Gaussian, Inc.  The licensee
 of this program is prohibited from giving any competitor of
 Gaussian, Inc. access to this program.  By using this program,
 the user acknowledges that Gaussian, Inc. is engaged in the
 business of creating and licensing software in the field of
 computational chemistry and represents and warrants to the
 licensee that it is not a competitor of Gaussian, Inc. and that
 it will not use this program in any manner prohibited above.
 ---------------------------------------------------------------
  

 Cite this work as:
 Gaussian 16, Revision C.01,
 M. J. Frisch, G. W. Trucks, H. B. Schlegel, G. E. Scuseria, 
 M. A. Robb, J. R. Cheeseman, G. Scalmani, V. Barone, 
 G. A. Petersson, H. Nakatsuji, X. Li, M. Caricato, A. V. Marenich, 
 J. Bloino, B. G. Janesko, R. Gomperts, B. Mennucci, H. P. Hratchian, 
 J. V. Ortiz, A. F. Izmaylov, J. L. Sonnenberg, D. Williams-Young, 
 F. Ding, F. Lipparini, F. Egidi, J. Goings, B. Peng, A. Petrone, 
 T. Henderson, D. Ranasinghe, V. G. Zakrzewski, J. Gao, N. Rega, 
 G. Zheng, W. Liang, M. Hada, M. Ehara, K. Toyota, R. Fukuda, 
 J. Hasegawa, M. Ishida, T. Nakajima, Y. Honda, O. Kitao, H. Nakai, 
 T. Vreven, K. Throssell, J. A. Montgomery, Jr., J. E. Peralta, 
 F. Ogliaro, M. J. Bearpark, J. J. Heyd, E. N. Brothers, K. N. Kudin, 
 V. N. Staroverov, T. A. Keith, R. Kobayashi, J. Normand, 
 K. Raghavachari, A. P. Rendell, J. C. Burant, S. S. Iyengar, 
 J. Tomasi, M. Cossi, J. M. Millam, M. Klene, C. Adamo, R. Cammi, 
 J. W. Ochterski, R. L. Martin, K. Morokuma, O. Farkas, 
 J. B. Foresman, and D. J. Fox, Gaussian, Inc., Wallingford CT, 2019.
 
 ******************************************
 Gaussian 16:  ES64L-G16RevC.01  3-Jul-2019
                 2-Apr-2025 
 ******************************************
 %Chk=5vg3_small_opt.chk
 %Mem=3000MB
 %NProcShared=2
 Will use up to    2 processors via shared memory.
 ----------------------------------------------------------------------
 # B3LYP/6-31G(d,p) Freq Geom=AllCheckpoint Guess=Read Integral=(Grid=U
 ltraFine) IOp(7/33=1)
 ----------------------------------------------------------------------
 1/10=4,29=7,30=1,38=1/1,3;
 2/12=2,40=1/2;
 3/5=1,6=6,7=101,11=2,14=-4,25=1,30=1,71=2,74=-5,75=-5,116=-2,140=1/1,2,3;
 4/5=1/1;
 5/5=2,38=6,98=1/2;
 8/6=4,10=90,11=11/1;
 11/6=1,8=1,9=11,15=111,16=1/1,2,10;
 10/6=1/2;
 6/7=2,8=2,9=2,10=2,28=1/1;
 7/8=1,10=1,25=1,33=1/1,2,3,16;
 1/10=4,30=1/3;
 99//99;
 Structure from the checkpoint file:  "5vg3_small_opt.chk"
 ---
 CLR
 ---
 Charge =  0 Multiplicity = 6
 Redundant internal coordinates found in file.  (old form).
 H,0,30.3861168909,9.4116120397,81.8962723432
 C,0,31.0325375059,10.0865869973,82.4654258761
 H,0,30.5795398472,10.2326029904,83.4515743033
 C,0,32.4546897931,9.5123527183,82.5961349511
 H,0,33.0708042523,10.1921349517,83.1956978699
 H,0,32.4076215494,8.5660333487,83.1521399585
 C,0,33.1450007517,9.2992812396,81.2836201949
 N,0,32.728626704,8.3627061249,80.3565522062
 H,0,32.0582530916,7.593190004,80.4891043627
 C,0,33.5560047305,8.4615146352,79.2822038719
 H,0,33.4521700497,7.8022451014,78.4338904692
 N,0,34.4779106916,9.3960152586,79.4385679519
 C,0,34.2211040446,9.9248770951,80.6888350802
 H,0,34.8124468453,10.73739599,81.0912209789
 H,0,31.0483145895,11.0507452356,81.9481076201
 H,0,38.241281256,8.7479086612,82.3875906127
 C,0,38.0873476333,8.4072045815,83.4153694516
 H,0,38.1646301217,9.2736049449,84.0790357591
 C,0,36.71334412,7.7306474675,83.566470243
 H,0,36.5598297251,7.4425017987,84.6156742107
 H,0,35.9236630614,8.4483520133,83.324021757
 C,0,36.5177117068,6.544979705,82.67502938
 N,0,37.2774533775,5.3849262895,82.7573003544
 H,0,38.0176872324,5.2070342188,83.4191396263
 C,0,36.8555866816,4.5222210587,81.7980683082
 H,0,37.2679640426,3.5399455886,81.6206560475
 N,0,35.8677651243,5.0591992587,81.1038348933
 C,0,35.6484916806,6.3151223788,81.6401622101
 H,0,34.8829748785,6.9700863365,81.2527870252
 H,0,38.9070176138,7.7251973003,83.6679273992
 H,0,38.8081084834,-1.9106760463,79.2843338787
 C,0,38.0082727694,-1.5143015899,78.6500886439
 H,0,37.1800908664,-2.2321771868,78.6738119763
 C,0,37.5576573282,-0.1282953166,79.1204297252
 H,0,37.213808763,-0.1757768518,80.1594966654
 H,0,38.4091182831,0.5622090152,79.1202728013
 C,0,36.4397983632,0.4545392286,78.2542307838
 H,0,36.7547367488,0.5383808043,77.2061404277
 H,0,35.5699276934,-0.2157682573,78.2395995179
 C,0,35.9354080017,1.8222825519,78.6861182442
 O,0,36.370356212,2.3665459336,79.7451146656
 O,0,35.0604796277,2.4032088483,77.9617568793
 H,0,38.3855702026,-1.4842949677,77.6211674817
 H,0,35.8510401866,8.0792097384,73.8413521942
 C,0,35.9269336687,7.0514702974,73.4701081926
 H,0,36.2517776045,7.1004602974,72.4263461986
 C,0,36.913165774,6.2164813972,74.3065340587
 H,0,36.9828217845,5.2062900521,73.891036397
 H,0,37.9198364554,6.6491579015,74.2246204255
 C,0,36.5304134589,6.086518481,75.7475704528
 N,0,36.5031992802,7.1593310814,76.627864191
 H,0,36.7114745227,8.12243406,76.4095573132
 C,0,36.0995976136,6.7138947274,77.8428653567
 H,0,35.9667638339,7.3707805694,78.690285574
 N,0,35.8641093383,5.4128932902,77.7993463759
 C,0,36.1298565189,5.0134439124,76.5016692208
 H,0,36.0003733038,3.981489982,76.2115746613
 H,0,34.9250492301,6.6138703929,73.4984645918
 Mn,0,34.9506817916,4.0820639796,79.3350497358
 C,0,32.2771582712,5.0833359235,80.2624497179
 C,0,32.2848384404,3.6097645354,80.7525302328
 O,0,33.2363039087,5.3237888011,79.4615106278
 O,0,31.4128888997,5.8504563707,80.7001464965
 O,0,33.2587209792,2.8856511029,80.5934061336
 O,0,31.1737069736,3.2059811154,81.3635328433
 H,0,31.3130652258,2.2761304928,81.616202001
 Recover connectivity data from disk.

 GradGradGradGradGradGradGradGradGradGradGradGradGradGradGradGradGradGrad
 Berny optimization.
 Initialization pass.
                           ----------------------------
                           !    Initial Parameters    !
                           ! (Angstroms and Degrees)  !
 --------------------------                            --------------------------
 ! Name  Definition              Value          Derivative Info.                !
 --------------------------------------------------------------------------------
 ! R1    R(1,2)                  1.0943         calculate D2E/DX2 analytically  !
 ! R2    R(2,3)                  1.095          calculate D2E/DX2 analytically  !
 ! R3    R(2,4)                  1.5393         calculate D2E/DX2 analytically  !
 ! R4    R(2,15)                 1.0943         calculate D2E/DX2 analytically  !
 ! R5    R(4,5)                  1.096          calculate D2E/DX2 analytically  !
 ! R6    R(4,6)                  1.0986         calculate D2E/DX2 analytically  !
 ! R7    R(4,7)                  1.4982         calculate D2E/DX2 analytically  !
 ! R8    R(7,8)                  1.382          calculate D2E/DX2 analytically  !
 ! R9    R(7,13)                 1.3795         calculate D2E/DX2 analytically  !
 ! R10   R(8,9)                  1.0291         calculate D2E/DX2 analytically  !
 ! R11   R(8,10)                 1.3596         calculate D2E/DX2 analytically  !
 ! R12   R(10,11)                1.0794         calculate D2E/DX2 analytically  !
 ! R13   R(10,12)                1.322          calculate D2E/DX2 analytically  !
 ! R14   R(12,13)                1.3816         calculate D2E/DX2 analytically  !
 ! R15   R(12,59)                5.3359         calculate D2E/DX2 analytically  !
 ! R16   R(13,14)                1.0825         calculate D2E/DX2 analytically  !
 ! R17   R(14,29)                3.7714         calculate D2E/DX2 analytically  !
 ! R18   R(16,17)                1.0937         calculate D2E/DX2 analytically  !
 ! R19   R(17,18)                1.0941         calculate D2E/DX2 analytically  !
 ! R20   R(17,19)                1.539          calculate D2E/DX2 analytically  !
 ! R21   R(17,30)                1.0958         calculate D2E/DX2 analytically  !
 ! R22   R(19,20)                1.0988         calculate D2E/DX2 analytically  !
 ! R23   R(19,21)                1.0943         calculate D2E/DX2 analytically  !
 ! R24   R(19,22)                1.4962         calculate D2E/DX2 analytically  !
 ! R25   R(22,23)                1.3891         calculate D2E/DX2 analytically  !
 ! R26   R(22,28)                1.3709         calculate D2E/DX2 analytically  !
 ! R27   R(23,24)                1.0088         calculate D2E/DX2 analytically  !
 ! R28   R(23,25)                1.3573         calculate D2E/DX2 analytically  !
 ! R29   R(25,26)                1.08           calculate D2E/DX2 analytically  !
 ! R30   R(25,27)                1.3214         calculate D2E/DX2 analytically  !
 ! R31   R(26,35)                3.9931         calculate D2E/DX2 analytically  !
 ! R32   R(27,28)                1.3831         calculate D2E/DX2 analytically  !
 ! R33   R(28,29)                1.0794         calculate D2E/DX2 analytically  !
 ! R34   R(31,32)                1.095          calculate D2E/DX2 analytically  !
 ! R35   R(32,33)                1.0963         calculate D2E/DX2 analytically  !
 ! R36   R(32,34)                1.5314         calculate D2E/DX2 analytically  !
 ! R37   R(32,43)                1.0963         calculate D2E/DX2 analytically  !
 ! R38   R(34,35)                1.0955         calculate D2E/DX2 analytically  !
 ! R39   R(34,36)                1.0963         calculate D2E/DX2 analytically  !
 ! R40   R(34,37)                1.5296         calculate D2E/DX2 analytically  !
 ! R41   R(37,38)                1.0976         calculate D2E/DX2 analytically  !
 ! R42   R(37,39)                1.0983         calculate D2E/DX2 analytically  !
 ! R43   R(37,40)                1.5204         calculate D2E/DX2 analytically  !
 ! R44   R(40,41)                1.2676         calculate D2E/DX2 analytically  !
 ! R45   R(40,42)                1.2758         calculate D2E/DX2 analytically  !
 ! R46   R(41,59)                2.2642         calculate D2E/DX2 analytically  !
 ! R47   R(42,62)                3.7559         calculate D2E/DX2 analytically  !
 ! R48   R(44,45)                1.0954         calculate D2E/DX2 analytically  !
 ! R49   R(45,46)                1.0942         calculate D2E/DX2 analytically  !
 ! R50   R(45,47)                1.5393         calculate D2E/DX2 analytically  !
 ! R51   R(45,58)                1.0936         calculate D2E/DX2 analytically  !
 ! R52   R(47,48)                1.0945         calculate D2E/DX2 analytically  !
 ! R53   R(47,49)                1.0988         calculate D2E/DX2 analytically  !
 ! R54   R(47,50)                1.4967         calculate D2E/DX2 analytically  !
 ! R55   R(50,51)                1.388          calculate D2E/DX2 analytically  !
 ! R56   R(50,56)                1.3713         calculate D2E/DX2 analytically  !
 ! R57   R(51,52)                1.0093         calculate D2E/DX2 analytically  !
 ! R58   R(51,53)                1.3556         calculate D2E/DX2 analytically  !
 ! R59   R(53,54)                1.0804         calculate D2E/DX2 analytically  !
 ! R60   R(53,55)                1.3229         calculate D2E/DX2 analytically  !
 ! R61   R(55,56)                1.3835         calculate D2E/DX2 analytically  !
 ! R62   R(55,59)                2.228          calculate D2E/DX2 analytically  !
 ! R63   R(56,57)                1.0797         calculate D2E/DX2 analytically  !
 ! R64   R(60,61)                1.5529         calculate D2E/DX2 analytically  !
 ! R65   R(60,62)                1.2725         calculate D2E/DX2 analytically  !
 ! R66   R(60,63)                1.2357         calculate D2E/DX2 analytically  !
 ! R67   R(61,64)                1.224          calculate D2E/DX2 analytically  !
 ! R68   R(61,65)                1.3308         calculate D2E/DX2 analytically  !
 ! R69   R(65,66)                0.9736         calculate D2E/DX2 analytically  !
 ! A1    A(1,2,3)              107.8359         calculate D2E/DX2 analytically  !
 ! A2    A(1,2,4)              111.0908         calculate D2E/DX2 analytically  !
 ! A3    A(1,2,15)             107.8251         calculate D2E/DX2 analytically  !
 ! A4    A(3,2,4)              110.8236         calculate D2E/DX2 analytically  !
 ! A5    A(3,2,15)             108.314          calculate D2E/DX2 analytically  !
 ! A6    A(4,2,15)             110.8251         calculate D2E/DX2 analytically  !
 ! A7    A(2,4,5)              109.5392         calculate D2E/DX2 analytically  !
 ! A8    A(2,4,6)              108.9501         calculate D2E/DX2 analytically  !
 ! A9    A(2,4,7)              113.8513         calculate D2E/DX2 analytically  !
 ! A10   A(5,4,6)              106.3496         calculate D2E/DX2 analytically  !
 ! A11   A(5,4,7)              107.9655         calculate D2E/DX2 analytically  !
 ! A12   A(6,4,7)              109.9145         calculate D2E/DX2 analytically  !
 ! A13   A(4,7,8)              123.04           calculate D2E/DX2 analytically  !
 ! A14   A(4,7,13)             132.2702         calculate D2E/DX2 analytically  !
 ! A15   A(8,7,13)             104.6617         calculate D2E/DX2 analytically  !
 ! A16   A(7,8,9)              128.0664         calculate D2E/DX2 analytically  !
 ! A17   A(7,8,10)             107.3058         calculate D2E/DX2 analytically  !
 ! A18   A(9,8,10)             123.5397         calculate D2E/DX2 analytically  !
 ! A19   A(8,10,11)            121.2051         calculate D2E/DX2 analytically  !
 ! A20   A(8,10,12)            112.4752         calculate D2E/DX2 analytically  !
 ! A21   A(11,10,12)           126.2852         calculate D2E/DX2 analytically  !
 ! A22   A(10,12,13)           104.3594         calculate D2E/DX2 analytically  !
 ! A23   A(10,12,59)            49.873          calculate D2E/DX2 analytically  !
 ! A24   A(13,12,59)           114.5343         calculate D2E/DX2 analytically  !
 ! A25   A(7,13,12)            111.1965         calculate D2E/DX2 analytically  !
 ! A26   A(7,13,14)            127.318          calculate D2E/DX2 analytically  !
 ! A27   A(12,13,14)           121.4779         calculate D2E/DX2 analytically  !
 ! A28   A(13,14,29)            43.6442         calculate D2E/DX2 analytically  !
 ! A29   A(16,17,18)           108.2647         calculate D2E/DX2 analytically  !
 ! A30   A(16,17,19)           110.7862         calculate D2E/DX2 analytically  !
 ! A31   A(16,17,30)           107.7701         calculate D2E/DX2 analytically  !
 ! A32   A(18,17,19)           110.587          calculate D2E/DX2 analytically  !
 ! A33   A(18,17,30)           107.4703         calculate D2E/DX2 analytically  !
 ! A34   A(19,17,30)           111.8136         calculate D2E/DX2 analytically  !
 ! A35   A(17,19,20)           109.4972         calculate D2E/DX2 analytically  !
 ! A36   A(17,19,21)           109.5239         calculate D2E/DX2 analytically  !
 ! A37   A(17,19,22)           113.9915         calculate D2E/DX2 analytically  !
 ! A38   A(20,19,21)           106.4226         calculate D2E/DX2 analytically  !
 ! A39   A(20,19,22)           110.0484         calculate D2E/DX2 analytically  !
 ! A40   A(21,19,22)           107.0598         calculate D2E/DX2 analytically  !
 ! A41   A(19,22,23)           123.7077         calculate D2E/DX2 analytically  !
 ! A42   A(19,22,28)           131.7224         calculate D2E/DX2 analytically  !
 ! A43   A(23,22,28)           104.5642         calculate D2E/DX2 analytically  !
 ! A44   A(22,23,24)           125.9759         calculate D2E/DX2 analytically  !
 ! A45   A(22,23,25)           108.5985         calculate D2E/DX2 analytically  !
 ! A46   A(24,23,25)           125.4253         calculate D2E/DX2 analytically  !
 ! A47   A(23,25,26)           125.1341         calculate D2E/DX2 analytically  !
 ! A48   A(23,25,27)           110.2029         calculate D2E/DX2 analytically  !
 ! A49   A(26,25,27)           124.6622         calculate D2E/DX2 analytically  !
 ! A50   A(25,26,35)           154.3266         calculate D2E/DX2 analytically  !
 ! A51   A(25,27,28)           106.4863         calculate D2E/DX2 analytically  !
 ! A52   A(22,28,27)           110.148          calculate D2E/DX2 analytically  !
 ! A53   A(22,28,29)           128.2333         calculate D2E/DX2 analytically  !
 ! A54   A(27,28,29)           121.6185         calculate D2E/DX2 analytically  !
 ! A55   A(14,29,28)           129.4031         calculate D2E/DX2 analytically  !
 ! A56   A(31,32,33)           107.5917         calculate D2E/DX2 analytically  !
 ! A57   A(31,32,34)           111.385          calculate D2E/DX2 analytically  !
 ! A58   A(31,32,43)           107.5852         calculate D2E/DX2 analytically  !
 ! A59   A(33,32,34)           111.3287         calculate D2E/DX2 analytically  !
 ! A60   A(33,32,43)           107.3508         calculate D2E/DX2 analytically  !
 ! A61   A(34,32,43)           111.3912         calculate D2E/DX2 analytically  !
 ! A62   A(32,34,35)           110.1469         calculate D2E/DX2 analytically  !
 ! A63   A(32,34,36)           109.9669         calculate D2E/DX2 analytically  !
 ! A64   A(32,34,37)           112.7044         calculate D2E/DX2 analytically  !
 ! A65   A(35,34,36)           105.7368         calculate D2E/DX2 analytically  !
 ! A66   A(35,34,37)           108.9202         calculate D2E/DX2 analytically  !
 ! A67   A(36,34,37)           109.1197         calculate D2E/DX2 analytically  !
 ! A68   A(26,35,34)           107.6068         calculate D2E/DX2 analytically  !
 ! A69   A(34,37,38)           111.1103         calculate D2E/DX2 analytically  !
 ! A70   A(34,37,39)           110.7215         calculate D2E/DX2 analytically  !
 ! A71   A(34,37,40)           115.1106         calculate D2E/DX2 analytically  !
 ! A72   A(38,37,39)           105.1391         calculate D2E/DX2 analytically  !
 ! A73   A(38,37,40)           107.3208         calculate D2E/DX2 analytically  !
 ! A74   A(39,37,40)           106.8624         calculate D2E/DX2 analytically  !
 ! A75   A(37,40,41)           120.6453         calculate D2E/DX2 analytically  !
 ! A76   A(37,40,42)           118.4144         calculate D2E/DX2 analytically  !
 ! A77   A(41,40,42)           120.9391         calculate D2E/DX2 analytically  !
 ! A78   A(40,41,59)            87.6428         calculate D2E/DX2 analytically  !
 ! A79   A(40,42,62)           117.4152         calculate D2E/DX2 analytically  !
 ! A80   A(44,45,46)           107.5687         calculate D2E/DX2 analytically  !
 ! A81   A(44,45,47)           111.6652         calculate D2E/DX2 analytically  !
 ! A82   A(44,45,58)           107.6477         calculate D2E/DX2 analytically  !
 ! A83   A(46,45,47)           110.6339         calculate D2E/DX2 analytically  !
 ! A84   A(46,45,58)           108.3369         calculate D2E/DX2 analytically  !
 ! A85   A(47,45,58)           110.8427         calculate D2E/DX2 analytically  !
 ! A86   A(45,47,48)           109.5817         calculate D2E/DX2 analytically  !
 ! A87   A(45,47,49)           109.4436         calculate D2E/DX2 analytically  !
 ! A88   A(45,47,50)           113.9812         calculate D2E/DX2 analytically  !
 ! A89   A(48,47,49)           106.0714         calculate D2E/DX2 analytically  !
 ! A90   A(48,47,50)           107.5561         calculate D2E/DX2 analytically  !
 ! A91   A(49,47,50)           109.8937         calculate D2E/DX2 analytically  !
 ! A92   A(47,50,51)           123.2669         calculate D2E/DX2 analytically  !
 ! A93   A(47,50,56)           132.2299         calculate D2E/DX2 analytically  !
 ! A94   A(51,50,56)           104.4966         calculate D2E/DX2 analytically  !
 ! A95   A(50,51,52)           126.6079         calculate D2E/DX2 analytically  !
 ! A96   A(50,51,53)           108.6816         calculate D2E/DX2 analytically  !
 ! A97   A(52,51,53)           124.6729         calculate D2E/DX2 analytically  !
 ! A98   A(51,53,54)           122.6731         calculate D2E/DX2 analytically  !
 ! A99   A(51,53,55)           110.2848         calculate D2E/DX2 analytically  !
 ! A100  A(54,53,55)           127.0042         calculate D2E/DX2 analytically  !
 ! A101  A(53,55,56)           106.2967         calculate D2E/DX2 analytically  !
 ! A102  A(53,55,59)           129.6255         calculate D2E/DX2 analytically  !
 ! A103  A(56,55,59)           123.5595         calculate D2E/DX2 analytically  !
 ! A104  A(50,56,55)           110.2402         calculate D2E/DX2 analytically  !
 ! A105  A(50,56,57)           129.431          calculate D2E/DX2 analytically  !
 ! A106  A(55,56,57)           120.3249         calculate D2E/DX2 analytically  !
 ! A107  A(12,59,55)            56.9638         calculate D2E/DX2 analytically  !
 ! A108  A(41,59,55)           108.6841         calculate D2E/DX2 analytically  !
 ! A109  A(61,60,62)           111.9752         calculate D2E/DX2 analytically  !
 ! A110  A(61,60,63)           118.7334         calculate D2E/DX2 analytically  !
 ! A111  A(62,60,63)           129.2576         calculate D2E/DX2 analytically  !
 ! A112  A(60,61,64)           121.6196         calculate D2E/DX2 analytically  !
 ! A113  A(60,61,65)           115.3834         calculate D2E/DX2 analytically  !
 ! A114  A(64,61,65)           122.9926         calculate D2E/DX2 analytically  !
 ! A115  A(42,62,60)           118.0653         calculate D2E/DX2 analytically  !
 ! A116  A(61,65,66)           106.8237         calculate D2E/DX2 analytically  !
 ! A117  L(12,59,41,55,-1)     165.6478         calculate D2E/DX2 analytically  !
 ! A118  L(12,59,41,55,-2)     142.7261         calculate D2E/DX2 analytically  !
 ! D1    D(1,2,4,5)           -178.2499         calculate D2E/DX2 analytically  !
 ! D2    D(1,2,4,6)            -62.2947         calculate D2E/DX2 analytically  !
 ! D3    D(1,2,4,7)             60.7689         calculate D2E/DX2 analytically  !
 ! D4    D(3,2,4,5)            -58.3877         calculate D2E/DX2 analytically  !
 ! D5    D(3,2,4,6)             57.5675         calculate D2E/DX2 analytically  !
 ! D6    D(3,2,4,7)           -179.3689         calculate D2E/DX2 analytically  !
 ! D7    D(15,2,4,5)            61.9005         calculate D2E/DX2 analytically  !
 ! D8    D(15,2,4,6)           177.8557         calculate D2E/DX2 analytically  !
 ! D9    D(15,2,4,7)           -59.0807         calculate D2E/DX2 analytically  !
 ! D10   D(2,4,7,8)            -66.7237         calculate D2E/DX2 analytically  !
 ! D11   D(2,4,7,13)           111.0347         calculate D2E/DX2 analytically  !
 ! D12   D(5,4,7,8)            171.4204         calculate D2E/DX2 analytically  !
 ! D13   D(5,4,7,13)           -10.8211         calculate D2E/DX2 analytically  !
 ! D14   D(6,4,7,8)             55.8119         calculate D2E/DX2 analytically  !
 ! D15   D(6,4,7,13)          -126.4296         calculate D2E/DX2 analytically  !
 ! D16   D(4,7,8,9)            -13.1025         calculate D2E/DX2 analytically  !
 ! D17   D(4,7,8,10)           178.6392         calculate D2E/DX2 analytically  !
 ! D18   D(13,7,8,9)           168.6119         calculate D2E/DX2 analytically  !
 ! D19   D(13,7,8,10)            0.3536         calculate D2E/DX2 analytically  !
 ! D20   D(4,7,13,12)         -178.4476         calculate D2E/DX2 analytically  !
 ! D21   D(4,7,13,14)            0.5456         calculate D2E/DX2 analytically  !
 ! D22   D(8,7,13,12)           -0.3898         calculate D2E/DX2 analytically  !
 ! D23   D(8,7,13,14)          178.6034         calculate D2E/DX2 analytically  !
 ! D24   D(7,8,10,11)          177.7804         calculate D2E/DX2 analytically  !
 ! D25   D(7,8,10,12)           -0.2095         calculate D2E/DX2 analytically  !
 ! D26   D(9,8,10,11)            8.8626         calculate D2E/DX2 analytically  !
 ! D27   D(9,8,10,12)         -169.1273         calculate D2E/DX2 analytically  !
 ! D28   D(8,10,12,13)          -0.0316         calculate D2E/DX2 analytically  !
 ! D29   D(8,10,12,59)         110.1379         calculate D2E/DX2 analytically  !
 ! D30   D(11,10,12,13)       -177.8987         calculate D2E/DX2 analytically  !
 ! D31   D(11,10,12,59)        -67.7292         calculate D2E/DX2 analytically  !
 ! D32   D(10,12,13,7)           0.2676         calculate D2E/DX2 analytically  !
 ! D33   D(10,12,13,14)       -178.7935         calculate D2E/DX2 analytically  !
 ! D34   D(59,12,13,7)         -51.8209         calculate D2E/DX2 analytically  !
 ! D35   D(59,12,13,14)        129.118          calculate D2E/DX2 analytically  !
 ! D36   D(10,12,59,55)        115.4321         calculate D2E/DX2 analytically  !
 ! D37   D(13,12,59,55)       -156.1834         calculate D2E/DX2 analytically  !
 ! D38   D(7,13,14,29)          88.103          calculate D2E/DX2 analytically  !
 ! D39   D(12,13,14,29)        -92.9977         calculate D2E/DX2 analytically  !
 ! D40   D(13,14,29,28)        169.7108         calculate D2E/DX2 analytically  !
 ! D41   D(16,17,19,20)       -177.1681         calculate D2E/DX2 analytically  !
 ! D42   D(16,17,19,21)        -60.8241         calculate D2E/DX2 analytically  !
 ! D43   D(16,17,19,22)         59.0775         calculate D2E/DX2 analytically  !
 ! D44   D(18,17,19,20)        -57.1235         calculate D2E/DX2 analytically  !
 ! D45   D(18,17,19,21)         59.2205         calculate D2E/DX2 analytically  !
 ! D46   D(18,17,19,22)        179.1221         calculate D2E/DX2 analytically  !
 ! D47   D(30,17,19,20)         62.5966         calculate D2E/DX2 analytically  !
 ! D48   D(30,17,19,21)        178.9406         calculate D2E/DX2 analytically  !
 ! D49   D(30,17,19,22)        -61.1578         calculate D2E/DX2 analytically  !
 ! D50   D(17,19,22,23)         63.3409         calculate D2E/DX2 analytically  !
 ! D51   D(17,19,22,28)       -115.6413         calculate D2E/DX2 analytically  !
 ! D52   D(20,19,22,23)        -60.1152         calculate D2E/DX2 analytically  !
 ! D53   D(20,19,22,28)        120.9026         calculate D2E/DX2 analytically  !
 ! D54   D(21,19,22,23)       -175.3796         calculate D2E/DX2 analytically  !
 ! D55   D(21,19,22,28)          5.6382         calculate D2E/DX2 analytically  !
 ! D56   D(19,22,23,24)          1.0679         calculate D2E/DX2 analytically  !
 ! D57   D(19,22,23,25)       -179.1251         calculate D2E/DX2 analytically  !
 ! D58   D(28,22,23,24)       -179.717          calculate D2E/DX2 analytically  !
 ! D59   D(28,22,23,25)          0.09           calculate D2E/DX2 analytically  !
 ! D60   D(19,22,28,27)        179.0244         calculate D2E/DX2 analytically  !
 ! D61   D(19,22,28,29)         -1.1355         calculate D2E/DX2 analytically  !
 ! D62   D(23,22,28,27)         -0.1008         calculate D2E/DX2 analytically  !
 ! D63   D(23,22,28,29)        179.7393         calculate D2E/DX2 analytically  !
 ! D64   D(22,23,25,26)        179.6554         calculate D2E/DX2 analytically  !
 ! D65   D(22,23,25,27)         -0.0479         calculate D2E/DX2 analytically  !
 ! D66   D(24,23,25,26)         -0.5362         calculate D2E/DX2 analytically  !
 ! D67   D(24,23,25,27)        179.7605         calculate D2E/DX2 analytically  !
 ! D68   D(23,25,26,35)        161.2881         calculate D2E/DX2 analytically  !
 ! D69   D(27,25,26,35)        -19.0505         calculate D2E/DX2 analytically  !
 ! D70   D(23,25,27,28)         -0.0155         calculate D2E/DX2 analytically  !
 ! D71   D(26,25,27,28)       -179.7205         calculate D2E/DX2 analytically  !
 ! D72   D(25,26,35,34)         84.9446         calculate D2E/DX2 analytically  !
 ! D73   D(25,27,28,22)          0.0747         calculate D2E/DX2 analytically  !
 ! D74   D(25,27,28,29)       -179.7779         calculate D2E/DX2 analytically  !
 ! D75   D(22,28,29,14)         31.7489         calculate D2E/DX2 analytically  !
 ! D76   D(27,28,29,14)       -148.4273         calculate D2E/DX2 analytically  !
 ! D77   D(31,32,34,35)        -58.144          calculate D2E/DX2 analytically  !
 ! D78   D(31,32,34,36)         58.0022         calculate D2E/DX2 analytically  !
 ! D79   D(31,32,34,37)        179.9924         calculate D2E/DX2 analytically  !
 ! D80   D(33,32,34,35)         61.9451         calculate D2E/DX2 analytically  !
 ! D81   D(33,32,34,36)        178.0913         calculate D2E/DX2 analytically  !
 ! D82   D(33,32,34,37)        -59.9185         calculate D2E/DX2 analytically  !
 ! D83   D(43,32,34,35)       -178.2673         calculate D2E/DX2 analytically  !
 ! D84   D(43,32,34,36)        -62.1211         calculate D2E/DX2 analytically  !
 ! D85   D(43,32,34,37)         59.8692         calculate D2E/DX2 analytically  !
 ! D86   D(32,34,35,26)        161.0607         calculate D2E/DX2 analytically  !
 ! D87   D(36,34,35,26)         42.2919         calculate D2E/DX2 analytically  !
 ! D88   D(37,34,35,26)        -74.858          calculate D2E/DX2 analytically  !
 ! D89   D(32,34,37,38)        -58.662          calculate D2E/DX2 analytically  !
 ! D90   D(32,34,37,39)         57.7846         calculate D2E/DX2 analytically  !
 ! D91   D(32,34,37,40)        179.1034         calculate D2E/DX2 analytically  !
 ! D92   D(35,34,37,38)        178.7836         calculate D2E/DX2 analytically  !
 ! D93   D(35,34,37,39)        -64.7698         calculate D2E/DX2 analytically  !
 ! D94   D(35,34,37,40)         56.549          calculate D2E/DX2 analytically  !
 ! D95   D(36,34,37,38)         63.8053         calculate D2E/DX2 analytically  !
 ! D96   D(36,34,37,39)       -179.7481         calculate D2E/DX2 analytically  !
 ! D97   D(36,34,37,40)        -58.4293         calculate D2E/DX2 analytically  !
 ! D98   D(34,37,40,41)         -4.5576         calculate D2E/DX2 analytically  !
 ! D99   D(34,37,40,42)        175.8247         calculate D2E/DX2 analytically  !
 ! D100  D(38,37,40,41)       -128.8079         calculate D2E/DX2 analytically  !
 ! D101  D(38,37,40,42)         51.5745         calculate D2E/DX2 analytically  !
 ! D102  D(39,37,40,41)        118.8345         calculate D2E/DX2 analytically  !
 ! D103  D(39,37,40,42)        -60.7832         calculate D2E/DX2 analytically  !
 ! D104  D(37,40,41,59)       -178.0525         calculate D2E/DX2 analytically  !
 ! D105  D(42,40,41,59)          1.5555         calculate D2E/DX2 analytically  !
 ! D106  D(37,40,42,62)        165.2359         calculate D2E/DX2 analytically  !
 ! D107  D(41,40,42,62)        -14.3806         calculate D2E/DX2 analytically  !
 ! D108  D(40,41,59,55)        -79.9283         calculate D2E/DX2 analytically  !
 ! D109  D(40,42,62,60)        -79.4721         calculate D2E/DX2 analytically  !
 ! D110  D(44,45,47,48)       -178.5002         calculate D2E/DX2 analytically  !
 ! D111  D(44,45,47,49)        -62.5765         calculate D2E/DX2 analytically  !
 ! D112  D(44,45,47,50)         60.9265         calculate D2E/DX2 analytically  !
 ! D113  D(46,45,47,48)        -58.7223         calculate D2E/DX2 analytically  !
 ! D114  D(46,45,47,49)         57.2014         calculate D2E/DX2 analytically  !
 ! D115  D(46,45,47,50)       -179.2956         calculate D2E/DX2 analytically  !
 ! D116  D(58,45,47,48)         61.4808         calculate D2E/DX2 analytically  !
 ! D117  D(58,45,47,49)        177.4045         calculate D2E/DX2 analytically  !
 ! D118  D(58,45,47,50)        -59.0926         calculate D2E/DX2 analytically  !
 ! D119  D(45,47,50,51)        -66.0469         calculate D2E/DX2 analytically  !
 ! D120  D(45,47,50,56)        112.8718         calculate D2E/DX2 analytically  !
 ! D121  D(48,47,50,51)        172.2533         calculate D2E/DX2 analytically  !
 ! D122  D(48,47,50,56)         -8.828          calculate D2E/DX2 analytically  !
 ! D123  D(49,47,50,51)         57.2119         calculate D2E/DX2 analytically  !
 ! D124  D(49,47,50,56)       -123.8693         calculate D2E/DX2 analytically  !
 ! D125  D(47,50,51,52)          1.2759         calculate D2E/DX2 analytically  !
 ! D126  D(47,50,51,53)        179.1186         calculate D2E/DX2 analytically  !
 ! D127  D(56,50,51,52)       -177.8972         calculate D2E/DX2 analytically  !
 ! D128  D(56,50,51,53)         -0.0545         calculate D2E/DX2 analytically  !
 ! D129  D(47,50,56,55)       -178.9911         calculate D2E/DX2 analytically  !
 ! D130  D(47,50,56,57)          0.2814         calculate D2E/DX2 analytically  !
 ! D131  D(51,50,56,55)          0.0751         calculate D2E/DX2 analytically  !
 ! D132  D(51,50,56,57)        179.3476         calculate D2E/DX2 analytically  !
 ! D133  D(50,51,53,54)       -177.8894         calculate D2E/DX2 analytically  !
 ! D134  D(50,51,53,55)          0.0143         calculate D2E/DX2 analytically  !
 ! D135  D(52,51,53,54)          0.005          calculate D2E/DX2 analytically  !
 ! D136  D(52,51,53,55)        177.9087         calculate D2E/DX2 analytically  !
 ! D137  D(51,53,55,56)          0.0322         calculate D2E/DX2 analytically  !
 ! D138  D(51,53,55,59)       -171.7908         calculate D2E/DX2 analytically  !
 ! D139  D(54,53,55,56)        177.8226         calculate D2E/DX2 analytically  !
 ! D140  D(54,53,55,59)          5.9995         calculate D2E/DX2 analytically  !
 ! D141  D(53,55,56,50)         -0.0683         calculate D2E/DX2 analytically  !
 ! D142  D(53,55,56,57)       -179.4173         calculate D2E/DX2 analytically  !
 ! D143  D(59,55,56,50)        172.3775         calculate D2E/DX2 analytically  !
 ! D144  D(59,55,56,57)         -6.9715         calculate D2E/DX2 analytically  !
 ! D145  D(53,55,59,12)         17.2681         calculate D2E/DX2 analytically  !
 ! D146  D(53,55,59,41)       -125.458          calculate D2E/DX2 analytically  !
 ! D147  D(56,55,59,12)       -153.303          calculate D2E/DX2 analytically  !
 ! D148  D(56,55,59,41)         63.9709         calculate D2E/DX2 analytically  !
 ! D149  D(62,60,61,64)         14.0788         calculate D2E/DX2 analytically  !
 ! D150  D(62,60,61,65)       -166.6685         calculate D2E/DX2 analytically  !
 ! D151  D(63,60,61,64)       -164.0007         calculate D2E/DX2 analytically  !
 ! D152  D(63,60,61,65)         15.252          calculate D2E/DX2 analytically  !
 ! D153  D(61,60,62,42)         15.0325         calculate D2E/DX2 analytically  !
 ! D154  D(63,60,62,42)       -167.1425         calculate D2E/DX2 analytically  !
 ! D155  D(60,61,65,66)       -179.9449         calculate D2E/DX2 analytically  !
 ! D156  D(64,61,65,66)         -0.7036         calculate D2E/DX2 analytically  !
 --------------------------------------------------------------------------------
 Trust Radius=3.00D-01 FncErr=1.00D-07 GrdErr=1.00D-07 EigMax=2.50D+02 EigMin=1.00D-04
 Number of steps in this run=      2 maximum allowed number of steps=      2.
 GradGradGradGradGradGradGradGradGradGradGradGradGradGradGradGradGradGrad

 Stoichiometry    C21H32MnN6O6(6)
 Framework group  C1[X(C21H32MnN6O6)]
 Deg. of freedom   192
 Full point group                 C1      NOp   1
 Largest Abelian subgroup         C1      NOp   1
 Largest concise Abelian subgroup C1      NOp   1
                         Standard orientation:                         
 ---------------------------------------------------------------------
 Center     Atomic      Atomic             Coordinates (Angstroms)
 Number     Number       Type             X           Y           Z
 ---------------------------------------------------------------------
      1          1           0        5.918505    0.509842   -2.673415
      2          6           0        6.495298    0.572628   -1.745647
      3          1           0        7.200075    1.404808   -1.844552
      4          6           0        5.571405    0.779312   -0.531953
      5          1           0        6.175960    0.869813    0.377717
      6          1           0        5.040168    1.734063   -0.646473
      7          6           0        4.586920   -0.330719   -0.324002
      8          7           0        3.557751   -0.600226   -1.206143
      9          1           0        3.212041   -0.012040   -1.976628
     10          6           0        2.886259   -1.680673   -0.726273
     11          1           0        2.010894   -2.063439   -1.228548
     12          7           0        3.404192   -2.137935    0.400806
     13          6           0        4.471185   -1.297378    0.653399
     14          1           0        5.110185   -1.438565    1.515682
     15          1           0        7.069028   -0.353699   -1.644560
     16          1           0        2.800994    0.201617    4.577214
     17          6           0        3.013387    1.272116    4.648106
     18          1           0        3.991038    1.397007    5.123160
     19          6           0        3.001631    1.924717    3.254399
     20          1           0        3.266756    2.987249    3.344720
     21          1           0        3.773230    1.465402    2.628986
     22          6           0        1.702691    1.780298    2.525945
     23          7           0        0.505265    2.327466    2.969205
     24          1           0        0.379823    2.882809    3.801961
     25          6           0       -0.474371    1.994285    2.090763
     26          1           0       -1.512709    2.277317    2.180999
     27          7           0        0.023141    1.265318    1.107307
     28          6           0        1.374715    1.126738    1.366368
     29          1           0        2.023420    0.571463    0.706136
     30          1           0        2.265196    1.718208    5.312929
     31          1           0       -7.590222    2.791873    1.598939
     32          6           0       -7.250276    2.159086    0.772420
     33          1           0       -7.543993    2.649645   -0.162928
     34          6           0       -5.737128    1.930297    0.830107
     35          1           0       -5.209045    2.889661    0.800184
     36          1           0       -5.464273    1.470433    1.787111
     37          6           0       -5.229347    1.048810   -0.312147
     38          1           0       -5.720863    0.067468   -0.302697
     39          1           0       -5.485255    1.488417   -1.285522
     40          6           0       -3.728875    0.803489   -0.319806
     41          8           0       -2.975713    1.379304    0.521657
     42          8           0       -3.247675    0.011555   -1.196710
     43          1           0       -7.800352    1.212617    0.831959
     44          1           0       -0.578150   -6.455854   -0.266139
     45          6           0       -1.618528   -6.270591   -0.554447
     46          1           0       -2.140654   -7.232162   -0.543102
     47          6           0       -2.302135   -5.270902    0.395695
     48          1           0       -3.344718   -5.131433    0.093130
     49          1           0       -2.333531   -5.692930    1.409703
     50          6           0       -1.656317   -3.921088    0.425634
     51          7           0       -0.377185   -3.699777    0.916987
     52          1           0        0.255965   -4.395659    1.282325
     53          6           0       -0.083222   -2.383055    0.785207
     54          1           0        0.873439   -1.967923    1.067569
     55          7           0       -1.099979   -1.738838    0.236443
     56          6           0       -2.082922   -2.685801    0.010093
     57          1           0       -3.019371   -2.401267   -0.445925
     58          1           0       -1.615904   -5.892585   -1.580690
     59         25           0       -1.224031    0.363288   -0.491236
     60          6           0        0.951318    1.017785   -2.453337
     61          6           0       -0.065793    2.172021   -2.665175
     62          8           0        0.468329    0.082809   -1.737918
     63          8           0        2.082294    1.125938   -2.939350
     64          8           0       -1.080200    2.266005   -1.986756
     65          8           0        0.253645    3.046521   -3.616063
     66          1           0       -0.460006    3.708289   -3.641560
 ---------------------------------------------------------------------
 Rotational constants (GHZ):           0.1208731           0.0770096           0.0673423
 Standard basis: 6-31G(d,p) (6D, 7F)
 There are   694 symmetry adapted cartesian basis functions of A   symmetry.
 There are   691 symmetry adapted basis functions of A   symmetry.
   691 basis functions,  1252 primitive gaussians,   694 cartesian basis functions
   139 alpha electrons      134 beta electrons
       nuclear repulsion energy      4330.1228761563 Hartrees.
 NAtoms=   66 NActive=   66 NUniq=   66 SFac= 1.00D+00 NAtFMM=   60 NAOKFM=T Big=T
 Integral buffers will be    131072 words long.
 Raffenetti 2 integral format.
 Two-electron integral symmetry is turned on.
 One-electron integrals computed using PRISM.
 NBasis=   691 RedAO= T EigKep=  1.08D-03  NBF=   691
 NBsUse=   691 1.00D-06 EigRej= -1.00D+00 NBFU=   691
 Initial guess from the checkpoint file:  "5vg3_small_opt.chk"
 B after Tr=    -0.000000    0.000000   -0.000000
         Rot=    1.000000    0.000000   -0.000000   -0.000000 Ang=   0.00 deg.
 Initial guess <Sx>= 0.0000 <Sy>= 0.0000 <Sz>= 2.5000 <S**2>= 8.7530 S= 2.5005
 Requested convergence on RMS density matrix=1.00D-08 within 128 cycles.
 Requested convergence on MAX density matrix=1.00D-06.
 Requested convergence on             energy=1.00D-06.
 No special actions if energy rises.
 SCF Done:  E(UB3LYP) =  -2750.56787303     A.U. after    1 cycles
            NFock=  1  Conv=0.47D-08     -V/T= 2.0060
 <Sx>= 0.0000 <Sy>= 0.0000 <Sz>= 2.5000 <S**2>= 8.7530 S= 2.5005
 <L.S>=  0.00000000000    
 Annihilation of the first spin contaminant:
 S**2 before annihilation     8.7530,   after     8.7500
 DoSCS=F DFT=T ScalE2(SS,OS)=  1.000000  1.000000
 Range of M.O.s used for correlation:     1   691
 NBasis=   691 NAE=   139 NBE=   134 NFC=     0 NFV=     0
 NROrb=    691 NOA=   139 NOB=   134 NVA=   552 NVB=   557

 **** Warning!!: The largest alpha MO coefficient is  0.17760750D+02


 **** Warning!!: The largest beta MO coefficient is  0.17764637D+02

 Symmetrizing basis deriv contribution to polar:
 IMax=3 JMax=2 DiffMx= 0.00D+00
 G2DrvN: will do    67 centers at a time, making    1 passes.
 Calling FoFCou, ICntrl=  3107 FMM=T I1Cent=   0 AccDes= 0.00D+00.
 End of G2Drv F.D. properties file   721 does not exist.
 End of G2Drv F.D. properties file   722 does not exist.
 End of G2Drv F.D. properties file   788 does not exist.
          IDoAtm=11111111111111111111111111111111111111111111111111
          IDoAtm=1111111111111111
          Differentiating once with respect to electric field.
                with respect to dipole field.
          Differentiating once with respect to nuclear coordinates.
 CalDSu exits because no D1Ps are significant.
          There are   201 degrees of freedom in the 1st order CPHF.  IDoFFX=6 NUNeed=     3.
    198 vectors produced by pass  0 Test12= 1.51D-13 1.00D-09 XBig12= 5.01D+02 4.58D+00.
 AX will form    72 AO Fock derivatives at one time.
    198 vectors produced by pass  1 Test12= 1.51D-13 1.00D-09 XBig12= 1.48D+02 1.92D+00.
    198 vectors produced by pass  2 Test12= 1.51D-13 1.00D-09 XBig12= 1.86D+00 2.06D-01.
    198 vectors produced by pass  3 Test12= 1.51D-13 1.00D-09 XBig12= 1.83D-02 1.17D-02.
    198 vectors produced by pass  4 Test12= 1.51D-13 1.00D-09 XBig12= 1.02D-04 1.30D-03.
    190 vectors produced by pass  5 Test12= 1.51D-13 1.00D-09 XBig12= 4.57D-07 4.33D-05.
    100 vectors produced by pass  6 Test12= 1.51D-13 1.00D-09 XBig12= 1.89D-09 3.86D-06.
      5 vectors produced by pass  7 Test12= 1.51D-13 1.00D-09 XBig12= 9.09D-12 2.82D-07.
      3 vectors produced by pass  8 Test12= 1.51D-13 1.00D-09 XBig12= 4.34D-14 1.07D-08.
      1 vectors produced by pass  9 Test12= 1.51D-13 1.00D-09 XBig12= 3.85D-16 1.39D-09.
 InvSVY:  IOpt=1 It=  1 EMax= 1.42D-14
 Solved reduced A of dimension  1289 with   201 vectors.
 Isotropic polarizability for W=    0.000000      291.70 Bohr**3.
 End of Minotr F.D. properties file   721 does not exist.
 End of Minotr F.D. properties file   722 does not exist.
 End of Minotr F.D. properties file   788 does not exist.

 **********************************************************************

            Population analysis using the SCF Density.

 **********************************************************************

 Orbital symmetries:
 Alpha Orbitals:
       Occupied  (A) (A) (A) (A) (A) (A) (A) (A) (A) (A) (A) (A)
                 (A) (A) (A) (A) (A) (A) (A) (A) (A) (A) (A) (A)
                 (A) (A) (A) (A) (A) (A) (A) (A) (A) (A) (A) (A)
                 (A) (A) (A) (A) (A) (A) (A) (A) (A) (A) (A) (A)
                 (A) (A) (A) (A) (A) (A) (A) (A) (A) (A) (A) (A)
                 (A) (A) (A) (A) (A) (A) (A) (A) (A) (A) (A) (A)
                 (A) (A) (A) (A) (A) (A) (A) (A) (A) (A) (A) (A)
                 (A) (A) (A) (A) (A) (A) (A) (A) (A) (A) (A) (A)
                 (A) (A) (A) (A) (A) (A) (A) (A) (A) (A) (A) (A)
                 (A) (A) (A) (A) (A) (A) (A) (A) (A) (A) (A) (A)
                 (A) (A) (A) (A) (A) (A) (A) (A) (A) (A) (A) (A)
                 (A) (A) (A) (A) (A) (A) (A)
       Virtual   (A) (A) (A) (A) (A) (A) (A) (A) (A) (A) (A) (A)
                 (A) (A) (A) (A) (A) (A) (A) (A) (A) (A) (A) (A)
                 (A) (A) (A) (A) (A) (A) (A) (A) (A) (A) (A) (A)
                 (A) (A) (A) (A) (A) (A) (A) (A) (A) (A) (A) (A)
                 (A) (A) (A) (A) (A) (A) (A) (A) (A) (A) (A) (A)
                 (A) (A) (A) (A) (A) (A) (A) (A) (A) (A) (A) (A)
                 (A) (A) (A) (A) (A) (A) (A) (A) (A) (A) (A) (A)
                 (A) (A) (A) (A) (A) (A) (A) (A) (A) (A) (A) (A)
                 (A) (A) (A) (A) (A) (A) (A) (A) (A) (A) (A) (A)
                 (A) (A) (A) (A) (A) (A) (A) (A) (A) (A) (A) (A)
                 (A) (A) (A) (A) (A) (A) (A) (A) (A) (A) (A) (A)
                 (A) (A) (A) (A) (A) (A) (A) (A) (A) (A) (A) (A)
                 (A) (A) (A) (A) (A) (A) (A) (A) (A) (A) (A) (A)
                 (A) (A) (A) (A) (A) (A) (A) (A) (A) (A) (A) (A)
                 (A) (A) (A) (A) (A) (A) (A) (A) (A) (A) (A) (A)
                 (A) (A) (A) (A) (A) (A) (A) (A) (A) (A) (A) (A)
                 (A) (A) (A) (A) (A) (A) (A) (A) (A) (A) (A) (A)
                 (A) (A) (A) (A) (A) (A) (A) (A) (A) (A) (A) (A)
                 (A) (A) (A) (A) (A) (A) (A) (A) (A) (A) (A) (A)
                 (A) (A) (A) (A) (A) (A) (A) (A) (A) (A) (A) (A)
                 (A) (A) (A) (A) (A) (A) (A) (A) (A) (A) (A) (A)
                 (A) (A) (A) (A) (A) (A) (A) (A) (A) (A) (A) (A)
                 (A) (A) (A) (A) (A) (A) (A) (A) (A) (A) (A) (A)
                 (A) (A) (A) (A) (A) (A) (A) (A) (A) (A) (A) (A)
                 (A) (A) (A) (A) (A) (A) (A) (A) (A) (A) (A) (A)
                 (A) (A) (A) (A) (A) (A) (A) (A) (A) (A) (A) (A)
                 (A) (A) (A) (A) (A) (A) (A) (A) (A) (A) (A) (A)
                 (A) (A) (A) (A) (A) (A) (A) (A) (A) (A) (A) (A)
                 (A) (A) (A) (A) (A) (A) (A) (A) (A) (A) (A) (A)
                 (A) (A) (A) (A) (A) (A) (A) (A) (A) (A) (A) (A)
                 (A) (A) (A) (A) (A) (A) (A) (A) (A) (A) (A) (A)
                 (A) (A) (A) (A) (A) (A) (A) (A) (A) (A) (A) (A)
                 (A) (A) (A) (A) (A) (A) (A) (A) (A) (A) (A) (A)
                 (A) (A) (A) (A) (A) (A) (A) (A) (A) (A) (A) (A)
                 (A) (A) (A) (A) (A) (A) (A) (A) (A) (A) (A) (A)
                 (A) (A) (A) (A) (A) (A) (A) (A) (A) (A) (A) (A)
                 (A) (A) (A) (A) (A) (A) (A) (A) (A) (A) (A) (A)
                 (A) (A) (A) (A) (A) (A) (A) (A) (A) (A) (A) (A)
                 (A) (A) (A) (A) (A) (A) (A) (A) (A) (A) (A) (A)
                 (A) (A) (A) (A) (A) (A) (A) (A) (A) (A) (A) (A)
                 (A) (A) (A) (A) (A) (A) (A) (A) (A) (A) (A) (A)
                 (A) (A) (A) (A) (A) (A) (A) (A) (A) (A) (A) (A)
                 (A) (A) (A) (A) (A) (A) (A) (A) (A) (A) (A) (A)
                 (A) (A) (A) (A) (A) (A) (A) (A) (A) (A) (A) (A)
                 (A) (A) (A) (A) (A) (A) (A) (A) (A) (A) (A) (A)
                 (A) (A) (A) (A) (A) (A) (A) (A) (A) (A) (A) (A)
 Beta  Orbitals:
       Occupied  (A) (A) (A) (A) (A) (A) (A) (A) (A) (A) (A) (A)
                 (A) (A) (A) (A) (A) (A) (A) (A) (A) (A) (A) (A)
                 (A) (A) (A) (A) (A) (A) (A) (A) (A) (A) (A) (A)
                 (A) (A) (A) (A) (A) (A) (A) (A) (A) (A) (A) (A)
                 (A) (A) (A) (A) (A) (A) (A) (A) (A) (A) (A) (A)
                 (A) (A) (A) (A) (A) (A) (A) (A) (A) (A) (A) (A)
                 (A) (A) (A) (A) (A) (A) (A) (A) (A) (A) (A) (A)
                 (A) (A) (A) (A) (A) (A) (A) (A) (A) (A) (A) (A)
                 (A) (A) (A) (A) (A) (A) (A) (A) (A) (A) (A) (A)
                 (A) (A) (A) (A) (A) (A) (A) (A) (A) (A) (A) (A)
                 (A) (A) (A) (A) (A) (A) (A) (A) (A) (A) (A) (A)
                 (A) (A)
       Virtual   (A) (A) (A) (A) (A) (A) (A) (A) (A) (A) (A) (A)
                 (A) (A) (A) (A) (A) (A) (A) (A) (A) (A) (A) (A)
                 (A) (A) (A) (A) (A) (A) (A) (A) (A) (A) (A) (A)
                 (A) (A) (A) (A) (A) (A) (A) (A) (A) (A) (A) (A)
                 (A) (A) (A) (A) (A) (A) (A) (A) (A) (A) (A) (A)
                 (A) (A) (A) (A) (A) (A) (A) (A) (A) (A) (A) (A)
                 (A) (A) (A) (A) (A) (A) (A) (A) (A) (A) (A) (A)
                 (A) (A) (A) (A) (A) (A) (A) (A) (A) (A) (A) (A)
                 (A) (A) (A) (A) (A) (A) (A) (A) (A) (A) (A) (A)
                 (A) (A) (A) (A) (A) (A) (A) (A) (A) (A) (A) (A)
                 (A) (A) (A) (A) (A) (A) (A) (A) (A) (A) (A) (A)
                 (A) (A) (A) (A) (A) (A) (A) (A) (A) (A) (A) (A)
                 (A) (A) (A) (A) (A) (A) (A) (A) (A) (A) (A) (A)
                 (A) (A) (A) (A) (A) (A) (A) (A) (A) (A) (A) (A)
                 (A) (A) (A) (A) (A) (A) (A) (A) (A) (A) (A) (A)
                 (A) (A) (A) (A) (A) (A) (A) (A) (A) (A) (A) (A)
                 (A) (A) (A) (A) (A) (A) (A) (A) (A) (A) (A) (A)
                 (A) (A) (A) (A) (A) (A) (A) (A) (A) (A) (A) (A)
                 (A) (A) (A) (A) (A) (A) (A) (A) (A) (A) (A) (A)
                 (A) (A) (A) (A) (A) (A) (A) (A) (A) (A) (A) (A)
                 (A) (A) (A) (A) (A) (A) (A) (A) (A) (A) (A) (A)
                 (A) (A) (A) (A) (A) (A) (A) (A) (A) (A) (A) (A)
                 (A) (A) (A) (A) (A) (A) (A) (A) (A) (A) (A) (A)
                 (A) (A) (A) (A) (A) (A) (A) (A) (A) (A) (A) (A)
                 (A) (A) (A) (A) (A) (A) (A) (A) (A) (A) (A) (A)
                 (A) (A) (A) (A) (A) (A) (A) (A) (A) (A) (A) (A)
                 (A) (A) (A) (A) (A) (A) (A) (A) (A) (A) (A) (A)
                 (A) (A) (A) (A) (A) (A) (A) (A) (A) (A) (A) (A)
                 (A) (A) (A) (A) (A) (A) (A) (A) (A) (A) (A) (A)
                 (A) (A) (A) (A) (A) (A) (A) (A) (A) (A) (A) (A)
                 (A) (A) (A) (A) (A) (A) (A) (A) (A) (A) (A) (A)
                 (A) (A) (A) (A) (A) (A) (A) (A) (A) (A) (A) (A)
                 (A) (A) (A) (A) (A) (A) (A) (A) (A) (A) (A) (A)
                 (A) (A) (A) (A) (A) (A) (A) (A) (A) (A) (A) (A)
                 (A) (A) (A) (A) (A) (A) (A) (A) (A) (A) (A) (A)
                 (A) (A) (A) (A) (A) (A) (A) (A) (A) (A) (A) (A)
                 (A) (A) (A) (A) (A) (A) (A) (A) (A) (A) (A) (A)
                 (A) (A) (A) (A) (A) (A) (A) (A) (A) (A) (A) (A)
                 (A) (A) (A) (A) (A) (A) (A) (A) (A) (A) (A) (A)
                 (A) (A) (A) (A) (A) (A) (A) (A) (A) (A) (A) (A)
                 (A) (A) (A) (A) (A) (A) (A) (A) (A) (A) (A) (A)
                 (A) (A) (A) (A) (A) (A) (A) (A) (A) (A) (A) (A)
                 (A) (A) (A) (A) (A) (A) (A) (A) (A) (A) (A) (A)
                 (A) (A) (A) (A) (A) (A) (A) (A) (A) (A) (A) (A)
                 (A) (A) (A) (A) (A) (A) (A) (A) (A) (A) (A) (A)
                 (A) (A) (A) (A) (A) (A) (A) (A) (A) (A) (A) (A)
                 (A) (A) (A) (A) (A)
 The electronic state is 6-A.
 Alpha  occ. eigenvalues -- -235.40890 -27.29249 -23.36561 -23.36505 -23.36398
 Alpha  occ. eigenvalues --  -19.20935 -19.16122 -19.11734 -19.10840 -19.09982
 Alpha  occ. eigenvalues --  -19.09669 -14.40869 -14.40158 -14.35075 -14.34713
 Alpha  occ. eigenvalues --  -14.34270 -14.29117 -10.32764 -10.29301 -10.27234
 Alpha  occ. eigenvalues --  -10.25717 -10.25095 -10.23219 -10.22734 -10.21076
 Alpha  occ. eigenvalues --  -10.20936 -10.20921 -10.20780 -10.20372 -10.19531
 Alpha  occ. eigenvalues --  -10.19478 -10.19072 -10.18624 -10.17448 -10.17011
 Alpha  occ. eigenvalues --  -10.16899 -10.16742 -10.16516  -3.21162  -2.07924
 Alpha  occ. eigenvalues --   -2.07811  -2.07712  -1.12250  -1.04381  -1.03393
 Alpha  occ. eigenvalues --   -1.03189  -1.02836  -1.02630  -0.98257  -0.95938
 Alpha  occ. eigenvalues --   -0.93278  -0.89101  -0.88494  -0.83979  -0.80481
 Alpha  occ. eigenvalues --   -0.80113  -0.77324  -0.77260  -0.73917  -0.73453
 Alpha  occ. eigenvalues --   -0.70162  -0.68669  -0.67787  -0.65087  -0.64666
 Alpha  occ. eigenvalues --   -0.63006  -0.62399  -0.61924  -0.60201  -0.59730
 Alpha  occ. eigenvalues --   -0.58394  -0.57421  -0.56468  -0.55860  -0.54698
 Alpha  occ. eigenvalues --   -0.54038  -0.50512  -0.50410  -0.49866  -0.48142
 Alpha  occ. eigenvalues --   -0.47335  -0.47015  -0.46355  -0.46295  -0.45830
 Alpha  occ. eigenvalues --   -0.45454  -0.44471  -0.44352  -0.44017  -0.43789
 Alpha  occ. eigenvalues --   -0.43758  -0.43639  -0.43397  -0.42536  -0.42448
 Alpha  occ. eigenvalues --   -0.41866  -0.41580  -0.41057  -0.40320  -0.40093
 Alpha  occ. eigenvalues --   -0.39619  -0.39294  -0.39182  -0.39106  -0.38924
 Alpha  occ. eigenvalues --   -0.38143  -0.37542  -0.37271  -0.36625  -0.36351
 Alpha  occ. eigenvalues --   -0.36285  -0.35343  -0.35285  -0.34769  -0.34685
 Alpha  occ. eigenvalues --   -0.34454  -0.33751  -0.33298  -0.32494  -0.32421
 Alpha  occ. eigenvalues --   -0.31550  -0.30842  -0.30069  -0.29478  -0.28437
 Alpha  occ. eigenvalues --   -0.27595  -0.26825  -0.26220  -0.25706  -0.24992
 Alpha  occ. eigenvalues --   -0.24582  -0.24157  -0.23787  -0.23461  -0.23014
 Alpha  occ. eigenvalues --   -0.22825  -0.19966  -0.19545  -0.18395
 Alpha virt. eigenvalues --   -0.03567   0.00956   0.01436   0.04445   0.04698
 Alpha virt. eigenvalues --    0.04992   0.05036   0.05488   0.05949   0.06480
 Alpha virt. eigenvalues --    0.07607   0.07956   0.08748   0.09757   0.10119
 Alpha virt. eigenvalues --    0.10426   0.10751   0.11212   0.11763   0.12348
 Alpha virt. eigenvalues --    0.13189   0.13580   0.13616   0.13913   0.14656
 Alpha virt. eigenvalues --    0.15158   0.15576   0.15667   0.15821   0.16139
 Alpha virt. eigenvalues --    0.16267   0.16716   0.17268   0.17627   0.17984
 Alpha virt. eigenvalues --    0.17986   0.18206   0.18539   0.19118   0.19214
 Alpha virt. eigenvalues --    0.19990   0.20024   0.20667   0.20969   0.21590
 Alpha virt. eigenvalues --    0.21900   0.22221   0.22666   0.22883   0.23037
 Alpha virt. eigenvalues --    0.23271   0.23892   0.24368   0.24778   0.25437
 Alpha virt. eigenvalues --    0.26090   0.26366   0.26573   0.27853   0.28230
 Alpha virt. eigenvalues --    0.30070   0.30509   0.31518   0.33013   0.33927
 Alpha virt. eigenvalues --    0.34658   0.36263   0.36648   0.38121   0.38573
 Alpha virt. eigenvalues --    0.40328   0.40818   0.41339   0.41737   0.42665
 Alpha virt. eigenvalues --    0.43206   0.45575   0.46843   0.47422   0.50043
 Alpha virt. eigenvalues --    0.50563   0.50989   0.51281   0.51348   0.51925
 Alpha virt. eigenvalues --    0.52541   0.52886   0.53186   0.53593   0.54053
 Alpha virt. eigenvalues --    0.54458   0.54857   0.55005   0.55251   0.55494
 Alpha virt. eigenvalues --    0.55590   0.55722   0.56455   0.57063   0.57380
 Alpha virt. eigenvalues --    0.57613   0.58297   0.58744   0.58897   0.59578
 Alpha virt. eigenvalues --    0.60299   0.60639   0.61011   0.61974   0.62290
 Alpha virt. eigenvalues --    0.62560   0.63300   0.63518   0.63752   0.64932
 Alpha virt. eigenvalues --    0.65446   0.65724   0.66286   0.66785   0.67360
 Alpha virt. eigenvalues --    0.67575   0.68009   0.69067   0.69667   0.70050
 Alpha virt. eigenvalues --    0.70266   0.71168   0.71873   0.72209   0.72623
 Alpha virt. eigenvalues --    0.73970   0.74194   0.74997   0.75805   0.76286
 Alpha virt. eigenvalues --    0.76677   0.77398   0.77993   0.78316   0.79024
 Alpha virt. eigenvalues --    0.79448   0.79820   0.80288   0.80442   0.80998
 Alpha virt. eigenvalues --    0.81311   0.81808   0.82264   0.82412   0.82666
 Alpha virt. eigenvalues --    0.83341   0.83645   0.84282   0.85106   0.85653
 Alpha virt. eigenvalues --    0.86117   0.86317   0.86584   0.86693   0.87028
 Alpha virt. eigenvalues --    0.87428   0.88186   0.88418   0.88614   0.89026
 Alpha virt. eigenvalues --    0.89323   0.89874   0.90387   0.90493   0.90933
 Alpha virt. eigenvalues --    0.91237   0.91792   0.91980   0.92351   0.92686
 Alpha virt. eigenvalues --    0.92979   0.93399   0.93728   0.94017   0.94355
 Alpha virt. eigenvalues --    0.94864   0.95675   0.95881   0.95967   0.96289
 Alpha virt. eigenvalues --    0.96572   0.97803   0.98464   0.99327   0.99756
 Alpha virt. eigenvalues --    1.00906   1.01153   1.02002   1.03639   1.04392
 Alpha virt. eigenvalues --    1.05210   1.05741   1.06431   1.06590   1.07218
 Alpha virt. eigenvalues --    1.07655   1.08241   1.09060   1.10581   1.11144
 Alpha virt. eigenvalues --    1.13188   1.14012   1.15808   1.16437   1.17100
 Alpha virt. eigenvalues --    1.17376   1.18176   1.20642   1.21962   1.22178
 Alpha virt. eigenvalues --    1.22502   1.23202   1.24481   1.26611   1.26731
 Alpha virt. eigenvalues --    1.27480   1.28766   1.29819   1.30224   1.31124
 Alpha virt. eigenvalues --    1.31509   1.31765   1.32367   1.33592   1.33937
 Alpha virt. eigenvalues --    1.34841   1.35350   1.35752   1.36729   1.37347
 Alpha virt. eigenvalues --    1.37797   1.38762   1.38867   1.39647   1.40950
 Alpha virt. eigenvalues --    1.41943   1.42912   1.44171   1.44469   1.44874
 Alpha virt. eigenvalues --    1.45543   1.46050   1.46398   1.47071   1.48383
 Alpha virt. eigenvalues --    1.49189   1.50789   1.51233   1.51822   1.53133
 Alpha virt. eigenvalues --    1.53384   1.54274   1.54638   1.55216   1.56821
 Alpha virt. eigenvalues --    1.57523   1.58007   1.58343   1.59354   1.59727
 Alpha virt. eigenvalues --    1.60201   1.61011   1.62120   1.63880   1.64442
 Alpha virt. eigenvalues --    1.65635   1.66505   1.66981   1.68269   1.69161
 Alpha virt. eigenvalues --    1.70114   1.71178   1.71312   1.72599   1.73923
 Alpha virt. eigenvalues --    1.74951   1.75928   1.76387   1.76735   1.77927
 Alpha virt. eigenvalues --    1.78199   1.79991   1.80987   1.81104   1.81648
 Alpha virt. eigenvalues --    1.82128   1.82931   1.82999   1.83056   1.83262
 Alpha virt. eigenvalues --    1.84347   1.85031   1.85537   1.85971   1.86175
 Alpha virt. eigenvalues --    1.86451   1.86666   1.87177   1.88189   1.88692
 Alpha virt. eigenvalues --    1.89599   1.90546   1.90576   1.91164   1.92118
 Alpha virt. eigenvalues --    1.93492   1.94186   1.94968   1.95194   1.96554
 Alpha virt. eigenvalues --    1.96773   1.97661   1.97792   1.98810   2.00035
 Alpha virt. eigenvalues --    2.00621   2.01702   2.02005   2.03094   2.03463
 Alpha virt. eigenvalues --    2.04259   2.04486   2.05175   2.05379   2.05938
 Alpha virt. eigenvalues --    2.06030   2.06070   2.07146   2.07613   2.07850
 Alpha virt. eigenvalues --    2.08490   2.08730   2.09057   2.09839   2.10372
 Alpha virt. eigenvalues --    2.10747   2.11287   2.11462   2.12218   2.12513
 Alpha virt. eigenvalues --    2.12752   2.13143   2.13755   2.14142   2.14461
 Alpha virt. eigenvalues --    2.14695   2.14819   2.15266   2.16445   2.16785
 Alpha virt. eigenvalues --    2.17607   2.17921   2.18101   2.18907   2.20857
 Alpha virt. eigenvalues --    2.21456   2.22741   2.23376   2.23650   2.23984
 Alpha virt. eigenvalues --    2.24294   2.24542   2.24606   2.25440   2.25703
 Alpha virt. eigenvalues --    2.26503   2.26992   2.27708   2.28377   2.29068
 Alpha virt. eigenvalues --    2.29425   2.29810   2.29997   2.31147   2.33042
 Alpha virt. eigenvalues --    2.35163   2.35394   2.35725   2.36149   2.36979
 Alpha virt. eigenvalues --    2.38855   2.39569   2.40057   2.41823   2.42764
 Alpha virt. eigenvalues --    2.43509   2.43540   2.44906   2.45302   2.45851
 Alpha virt. eigenvalues --    2.45975   2.46296   2.47330   2.47744   2.48911
 Alpha virt. eigenvalues --    2.49224   2.50045   2.50435   2.51449   2.52601
 Alpha virt. eigenvalues --    2.53185   2.53830   2.54141   2.54730   2.54774
 Alpha virt. eigenvalues --    2.55969   2.56043   2.56333   2.57453   2.57996
 Alpha virt. eigenvalues --    2.58755   2.59049   2.59369   2.60269   2.60696
 Alpha virt. eigenvalues --    2.62400   2.62509   2.62748   2.63400   2.64542
 Alpha virt. eigenvalues --    2.66070   2.66906   2.67795   2.68122   2.68705
 Alpha virt. eigenvalues --    2.69919   2.69965   2.70727   2.70867   2.71327
 Alpha virt. eigenvalues --    2.72595   2.73348   2.73831   2.73895   2.74280
 Alpha virt. eigenvalues --    2.74564   2.74769   2.76701   2.76823   2.78381
 Alpha virt. eigenvalues --    2.78990   2.80132   2.80680   2.81163   2.81567
 Alpha virt. eigenvalues --    2.82372   2.82922   2.83667   2.85034   2.85453
 Alpha virt. eigenvalues --    2.85895   2.86375   2.87183   2.88982   2.89112
 Alpha virt. eigenvalues --    2.89433   2.89931   2.90556   2.90644   2.91246
 Alpha virt. eigenvalues --    2.91786   2.91900   2.92280   2.93733   2.94201
 Alpha virt. eigenvalues --    2.95010   2.96798   2.97482   3.00596   3.01345
 Alpha virt. eigenvalues --    3.01945   3.05140   3.06232   3.07129   3.09123
 Alpha virt. eigenvalues --    3.14868   3.16569   3.17049   3.17504   3.19782
 Alpha virt. eigenvalues --    3.21270   3.22196   3.22630   3.25394   3.26038
 Alpha virt. eigenvalues --    3.26872   3.28285   3.29461   3.30107   3.30364
 Alpha virt. eigenvalues --    3.30945   3.35014   3.36096   3.37113   3.38292
 Alpha virt. eigenvalues --    3.38345   3.40254   3.41845   3.44734   3.44760
 Alpha virt. eigenvalues --    3.46799   3.48733   3.50581   3.52296   3.52367
 Alpha virt. eigenvalues --    3.54416   3.57884   3.58040   3.59405   3.60570
 Alpha virt. eigenvalues --    3.67510   3.67654   3.72588   3.89169   4.02270
 Alpha virt. eigenvalues --    4.04247   4.07727   4.09504   4.11474   4.13450
 Alpha virt. eigenvalues --    4.14356   4.15168   4.19348   4.19895   4.21124
 Alpha virt. eigenvalues --    4.24925   4.25608   4.28018   4.34523   4.36370
 Alpha virt. eigenvalues --    4.36510   4.39735   4.43873   4.46649   4.52247
 Alpha virt. eigenvalues --    4.54016   4.56509   4.56866   4.59102   4.59367
 Alpha virt. eigenvalues --    4.62158   4.71984   4.72341   4.73842   4.75869
 Alpha virt. eigenvalues --    4.81138  16.51639
  Beta  occ. eigenvalues -- -235.40775 -27.21096 -23.29762 -23.29718 -23.29628
  Beta  occ. eigenvalues --  -19.20928 -19.16039 -19.11626 -19.10806 -19.09862
  Beta  occ. eigenvalues --  -19.09548 -14.40861 -14.40148 -14.35075 -14.34640
  Beta  occ. eigenvalues --  -14.34186 -14.29117 -10.32758 -10.29286 -10.27211
  Beta  occ. eigenvalues --  -10.25695 -10.25074 -10.23217 -10.22733 -10.21075
  Beta  occ. eigenvalues --  -10.20936 -10.20920 -10.20769 -10.20361 -10.19531
  Beta  occ. eigenvalues --  -10.19478 -10.19072 -10.18624 -10.17448 -10.17015
  Beta  occ. eigenvalues --  -10.16899 -10.16739 -10.16515  -2.99289  -1.84824
  Beta  occ. eigenvalues --   -1.84713  -1.84576  -1.12202  -1.04262  -1.03205
  Beta  occ. eigenvalues --   -1.03100  -1.02733  -1.02576  -0.98256  -0.95783
  Beta  occ. eigenvalues --   -0.93027  -0.89022  -0.88406  -0.83979  -0.80472
  Beta  occ. eigenvalues --   -0.80104  -0.77310  -0.77260  -0.73891  -0.73427
  Beta  occ. eigenvalues --   -0.70162  -0.68641  -0.67756  -0.65066  -0.64647
  Beta  occ. eigenvalues --   -0.62935  -0.62321  -0.61923  -0.60172  -0.59699
  Beta  occ. eigenvalues --   -0.58369  -0.57415  -0.56446  -0.55807  -0.54655
  Beta  occ. eigenvalues --   -0.54000  -0.50440  -0.50282  -0.49701  -0.47714
  Beta  occ. eigenvalues --   -0.47277  -0.46982  -0.46295  -0.46236  -0.45778
  Beta  occ. eigenvalues --   -0.45424  -0.44412  -0.44312  -0.43932  -0.43724
  Beta  occ. eigenvalues --   -0.43661  -0.43555  -0.43291  -0.42440  -0.42126
  Beta  occ. eigenvalues --   -0.41797  -0.41451  -0.40965  -0.40288  -0.39957
  Beta  occ. eigenvalues --   -0.39492  -0.39213  -0.39074  -0.39025  -0.38750
  Beta  occ. eigenvalues --   -0.38138  -0.37490  -0.37199  -0.36512  -0.36325
  Beta  occ. eigenvalues --   -0.36171  -0.35177  -0.35041  -0.34685  -0.33846
  Beta  occ. eigenvalues --   -0.33703  -0.33146  -0.32471  -0.32204  -0.31983
  Beta  occ. eigenvalues --   -0.31454  -0.30316  -0.29624  -0.27663  -0.26629
  Beta  occ. eigenvalues --   -0.26038  -0.25601  -0.25038  -0.24936  -0.24387
  Beta  occ. eigenvalues --   -0.24233  -0.23681  -0.23206  -0.19968
  Beta virt. eigenvalues --   -0.03686   0.00566   0.01006   0.03358   0.03742
  Beta virt. eigenvalues --    0.04222   0.04781   0.04986   0.05196   0.05717
  Beta virt. eigenvalues --    0.06259   0.06699   0.07096   0.07428   0.07791
  Beta virt. eigenvalues --    0.08021   0.08197   0.09683   0.09894   0.10344
  Beta virt. eigenvalues --    0.10766   0.11024   0.11268   0.11904   0.12421
  Beta virt. eigenvalues --    0.13214   0.13621   0.13663   0.13928   0.14688
  Beta virt. eigenvalues --    0.15207   0.15657   0.15715   0.15858   0.16178
  Beta virt. eigenvalues --    0.16328   0.16731   0.17284   0.17746   0.17992
  Beta virt. eigenvalues --    0.18065   0.18355   0.18571   0.19197   0.19514
  Beta virt. eigenvalues --    0.20020   0.20332   0.20819   0.21058   0.21807
  Beta virt. eigenvalues --    0.22200   0.22613   0.22856   0.23184   0.23328
  Beta virt. eigenvalues --    0.23890   0.24120   0.24507   0.24873   0.25469
  Beta virt. eigenvalues --    0.26143   0.26418   0.26623   0.27955   0.28333
  Beta virt. eigenvalues --    0.30189   0.30634   0.31632   0.33527   0.34418
  Beta virt. eigenvalues --    0.35236   0.36614   0.37317   0.38636   0.38964
  Beta virt. eigenvalues --    0.40600   0.41384   0.41865   0.42519   0.42829
  Beta virt. eigenvalues --    0.44995   0.46406   0.47539   0.48243   0.50126
  Beta virt. eigenvalues --    0.50836   0.51131   0.51342   0.51622   0.52002
  Beta virt. eigenvalues --    0.52768   0.53065   0.53220   0.53715   0.54106
  Beta virt. eigenvalues --    0.54612   0.54924   0.55137   0.55291   0.55604
  Beta virt. eigenvalues --    0.55772   0.56225   0.56697   0.57127   0.57430
  Beta virt. eigenvalues --    0.57687   0.58379   0.58873   0.59068   0.59821
  Beta virt. eigenvalues --    0.60393   0.60715   0.61147   0.62076   0.62574
  Beta virt. eigenvalues --    0.62798   0.63410   0.63610   0.63999   0.65163
  Beta virt. eigenvalues --    0.65661   0.65849   0.66356   0.66874   0.67468
  Beta virt. eigenvalues --    0.67646   0.68100   0.69183   0.69889   0.70103
  Beta virt. eigenvalues --    0.70349   0.71266   0.71946   0.72317   0.72907
  Beta virt. eigenvalues --    0.74132   0.74313   0.75181   0.75892   0.76385
  Beta virt. eigenvalues --    0.76778   0.77432   0.78024   0.78402   0.79089
  Beta virt. eigenvalues --    0.79500   0.79925   0.80396   0.80523   0.81183
  Beta virt. eigenvalues --    0.81456   0.81908   0.82428   0.82520   0.82729
  Beta virt. eigenvalues --    0.83533   0.83727   0.84418   0.85263   0.85801
  Beta virt. eigenvalues --    0.86208   0.86358   0.86612   0.86727   0.87081
  Beta virt. eigenvalues --    0.87547   0.88325   0.88449   0.88845   0.89103
  Beta virt. eigenvalues --    0.89437   0.89924   0.90574   0.90709   0.90990
  Beta virt. eigenvalues --    0.91311   0.91817   0.92117   0.92402   0.92783
  Beta virt. eigenvalues --    0.93047   0.93445   0.93753   0.94231   0.94412
  Beta virt. eigenvalues --    0.94964   0.95957   0.96017   0.96385   0.96538
  Beta virt. eigenvalues --    0.96849   0.97909   0.98950   0.99648   1.00133
  Beta virt. eigenvalues --    1.01280   1.01771   1.02217   1.04528   1.04919
  Beta virt. eigenvalues --    1.05655   1.05938   1.06622   1.07215   1.08082
  Beta virt. eigenvalues --    1.08590   1.08627   1.10187   1.11182   1.11596
  Beta virt. eigenvalues --    1.13714   1.14251   1.15974   1.16589   1.18067
  Beta virt. eigenvalues --    1.18354   1.18791   1.21210   1.22285   1.22611
  Beta virt. eigenvalues --    1.22996   1.23386   1.24998   1.26806   1.26858
  Beta virt. eigenvalues --    1.28110   1.29471   1.30054   1.30552   1.31278
  Beta virt. eigenvalues --    1.31999   1.32166   1.32720   1.33869   1.34071
  Beta virt. eigenvalues --    1.35015   1.35830   1.36430   1.37277   1.37552
  Beta virt. eigenvalues --    1.37880   1.39028   1.39190   1.39959   1.41285
  Beta virt. eigenvalues --    1.42320   1.43739   1.44657   1.44741   1.45179
  Beta virt. eigenvalues --    1.45755   1.46542   1.46562   1.47209   1.49006
  Beta virt. eigenvalues --    1.49564   1.51190   1.51722   1.52591   1.53634
  Beta virt. eigenvalues --    1.54341   1.54923   1.55415   1.55729   1.56900
  Beta virt. eigenvalues --    1.58119   1.58256   1.58815   1.59455   1.60372
  Beta virt. eigenvalues --    1.60938   1.62934   1.64238   1.64848   1.65275
  Beta virt. eigenvalues --    1.66786   1.67322   1.67944   1.69011   1.70108
  Beta virt. eigenvalues --    1.70290   1.71550   1.72521   1.73331   1.74347
  Beta virt. eigenvalues --    1.75852   1.76386   1.76697   1.77607   1.78350
  Beta virt. eigenvalues --    1.78695   1.80579   1.81212   1.81351   1.82186
  Beta virt. eigenvalues --    1.82411   1.83051   1.83128   1.83648   1.83775
  Beta virt. eigenvalues --    1.85287   1.85796   1.85883   1.86091   1.86350
  Beta virt. eigenvalues --    1.86699   1.87325   1.87974   1.88900   1.89183
  Beta virt. eigenvalues --    1.90124   1.90819   1.91207   1.92133   1.92352
  Beta virt. eigenvalues --    1.93883   1.94709   1.95131   1.95519   1.96646
  Beta virt. eigenvalues --    1.97002   1.97742   1.98371   1.99612   2.00532
  Beta virt. eigenvalues --    2.01719   2.02341   2.03063   2.03489   2.04096
  Beta virt. eigenvalues --    2.04476   2.04750   2.05315   2.05836   2.06035
  Beta virt. eigenvalues --    2.06072   2.07076   2.07611   2.07773   2.07855
  Beta virt. eigenvalues --    2.08620   2.09271   2.09654   2.09889   2.10555
  Beta virt. eigenvalues --    2.11148   2.11486   2.11626   2.12304   2.12795
  Beta virt. eigenvalues --    2.13127   2.13760   2.14047   2.14224   2.14592
  Beta virt. eigenvalues --    2.14855   2.15027   2.15417   2.17401   2.17717
  Beta virt. eigenvalues --    2.18156   2.18608   2.19392   2.21260   2.21521
  Beta virt. eigenvalues --    2.22691   2.23486   2.23962   2.24335   2.24474
  Beta virt. eigenvalues --    2.24605   2.25593   2.25709   2.26142   2.27087
  Beta virt. eigenvalues --    2.27697   2.27779   2.28611   2.29503   2.29821
  Beta virt. eigenvalues --    2.30004   2.31109   2.31962   2.34320   2.35070
  Beta virt. eigenvalues --    2.35495   2.35760   2.36221   2.36342   2.38872
  Beta virt. eigenvalues --    2.39957   2.40616   2.42423   2.43424   2.43992
  Beta virt. eigenvalues --    2.44749   2.45207   2.45783   2.45925   2.46152
  Beta virt. eigenvalues --    2.46561   2.46919   2.47515   2.47986   2.49352
  Beta virt. eigenvalues --    2.50112   2.50809   2.51794   2.51960   2.53010
  Beta virt. eigenvalues --    2.53804   2.54246   2.54626   2.55259   2.55651
  Beta virt. eigenvalues --    2.56285   2.56675   2.56923   2.57943   2.58561
  Beta virt. eigenvalues --    2.59152   2.60035   2.60563   2.60718   2.62399
  Beta virt. eigenvalues --    2.62619   2.63032   2.64158   2.64774   2.65844
  Beta virt. eigenvalues --    2.66247   2.67345   2.68001   2.68391   2.69023
  Beta virt. eigenvalues --    2.70030   2.70455   2.70934   2.71198   2.71445
  Beta virt. eigenvalues --    2.73379   2.73736   2.73912   2.74064   2.74679
  Beta virt. eigenvalues --    2.74732   2.75934   2.76832   2.78383   2.78849
  Beta virt. eigenvalues --    2.79029   2.80226   2.81114   2.81351   2.82033
  Beta virt. eigenvalues --    2.82412   2.82954   2.83732   2.85091   2.85517
  Beta virt. eigenvalues --    2.85904   2.86413   2.87226   2.89010   2.89130
  Beta virt. eigenvalues --    2.89473   2.90008   2.90560   2.90947   2.91278
  Beta virt. eigenvalues --    2.91890   2.92123   2.92376   2.93746   2.94291
  Beta virt. eigenvalues --    2.95095   2.96896   2.97494   3.00770   3.01470
  Beta virt. eigenvalues --    3.01986   3.05287   3.06259   3.07266   3.09229
  Beta virt. eigenvalues --    3.15023   3.16711   3.17071   3.17506   3.19783
  Beta virt. eigenvalues --    3.21306   3.22241   3.22778   3.25401   3.26050
  Beta virt. eigenvalues --    3.26881   3.28365   3.29495   3.30119   3.30377
  Beta virt. eigenvalues --    3.30982   3.35017   3.36100   3.37139   3.38294
  Beta virt. eigenvalues --    3.38348   3.40254   3.41863   3.44736   3.44762
  Beta virt. eigenvalues --    3.46799   3.48737   3.50584   3.52298   3.52369
  Beta virt. eigenvalues --    3.54417   3.57888   3.58043   3.59457   3.60626
  Beta virt. eigenvalues --    3.67547   3.67692   3.72596   3.89285   4.02372
  Beta virt. eigenvalues --    4.04351   4.07770   4.09542   4.11586   4.13502
  Beta virt. eigenvalues --    4.14417   4.15243   4.19360   4.19930   4.21163
  Beta virt. eigenvalues --    4.25007   4.25622   4.28170   4.34689   4.36386
  Beta virt. eigenvalues --    4.36520   4.39737   4.43942   4.46660   4.52305
  Beta virt. eigenvalues --    4.54076   4.56519   4.56894   4.59104   4.59437
  Beta virt. eigenvalues --    4.62195   4.71996   4.72352   4.73865   4.75872
  Beta virt. eigenvalues --    4.81279  16.64486
          Condensed to atoms (all electrons):
          Atomic-Atomic Spin Densities.
 Mulliken charges and spin densities:
               1          2
     1  H    0.119859  -0.000000
     2  C   -0.310649   0.000001
     3  H    0.098225   0.000000
     4  C   -0.243399   0.000002
     5  H    0.100604   0.000000
     6  H    0.111532  -0.000000
     7  C    0.264655  -0.000000
     8  N   -0.518739  -0.000039
     9  H    0.305310   0.000018
    10  C    0.238660   0.000118
    11  H    0.124563   0.000077
    12  N   -0.485556   0.000000
    13  C   -0.033265   0.000016
    14  H    0.068502  -0.000000
    15  H    0.110398   0.000000
    16  H    0.126346  -0.000009
    17  C   -0.314499   0.000012
    18  H    0.113690   0.000059
    19  C   -0.250220   0.000366
    20  H    0.112064  -0.000030
    21  H    0.136628   0.000014
    22  C    0.278001   0.000089
    23  N   -0.538418   0.002168
    24  H    0.273433   0.000958
    25  C    0.312078   0.011657
    26  H    0.176541  -0.000247
    27  N   -0.591117   0.010067
    28  C    0.013561   0.005314
    29  H    0.145551   0.000461
    30  H    0.093624   0.000010
    31  H    0.095500  -0.000026
    32  C   -0.320928   0.000482
    33  H    0.099631  -0.000015
    34  C   -0.161663   0.001003
    35  H    0.105453   0.000077
    36  H    0.098666   0.000034
    37  C   -0.252046  -0.001132
    38  H    0.112807   0.000614
    39  H    0.122256   0.000581
    40  C    0.632131   0.014803
    41  O   -0.622410   0.018909
    42  O   -0.633605   0.019738
    43  H    0.098100  -0.000013
    44  H    0.100989   0.000010
    45  C   -0.313295  -0.000016
    46  H    0.111458   0.000045
    47  C   -0.246861   0.000441
    48  H    0.124957   0.000017
    49  H    0.112111  -0.000049
    50  C    0.285327  -0.000591
    51  N   -0.536077   0.002812
    52  H    0.281140   0.000953
    53  C    0.308022   0.011610
    54  H    0.166138   0.000175
    55  N   -0.589641   0.012466
    56  C    0.020697   0.005244
    57  H    0.137620   0.000452
    58  H    0.126218  -0.000008
    59  Mn   1.132939   4.829756
    60  C    0.605438   0.008781
    61  C    0.544467   0.004011
    62  O   -0.641135   0.012418
    63  O   -0.535753   0.012096
    64  O   -0.492876   0.010679
    65  O   -0.442764   0.001846
    66  H    0.329027   0.000718
 Sum of Mulliken charges =  -0.00000   5.00000
 Mulliken charges and spin densities with hydrogens summed into heavy atoms:
               1          2
     2  C    0.017833   0.000000
     4  C   -0.031263   0.000002
     7  C    0.264655  -0.000000
     8  N   -0.213429  -0.000021
    10  C    0.363222   0.000195
    12  N   -0.485556   0.000000
    13  C    0.035237   0.000016
    17  C    0.019162   0.000072
    19  C   -0.001527   0.000349
    22  C    0.278001   0.000089
    23  N   -0.264985   0.003126
    25  C    0.488618   0.011410
    27  N   -0.591117   0.010067
    28  C    0.159113   0.005776
    32  C   -0.027697   0.000428
    34  C    0.042456   0.001114
    37  C   -0.016983   0.000062
    40  C    0.632131   0.014803
    41  O   -0.622410   0.018909
    42  O   -0.633605   0.019738
    45  C    0.025370   0.000031
    47  C   -0.009793   0.000409
    50  C    0.285327  -0.000591
    51  N   -0.254937   0.003764
    53  C    0.474160   0.011785
    55  N   -0.589641   0.012466
    56  C    0.158317   0.005697
    59  Mn   1.132939   4.829756
    60  C    0.605438   0.008781
    61  C    0.544467   0.004011
    62  O   -0.641135   0.012418
    63  O   -0.535753   0.012096
    64  O   -0.492876   0.010679
    65  O   -0.113737   0.002564
 APT charges:
               1
     1  H   -0.008107
     2  C    0.079536
     3  H   -0.053085
     4  C    0.188673
     5  H   -0.039839
     6  H   -0.057951
     7  C    0.082785
     8  N   -0.443706
     9  H    0.446756
    10  C    0.154444
    11  H    0.078118
    12  N   -0.485475
    13  C    0.035175
    14  H    0.031748
    15  H   -0.019305
    16  H   -0.002268
    17  C    0.067299
    18  H   -0.034036
    19  C    0.174541
    20  H   -0.066572
    21  H   -0.005691
    22  C    0.107081
    23  N   -0.345532
    24  H    0.234025
    25  C    0.216545
    26  H    0.139664
    27  N   -0.528907
    28  C    0.032354
    29  H    0.101392
    30  H   -0.028325
[...]
 00003555,0.00003523,-0.00000649,0.00002890,0.00000622,-0.00011723,0.00
 001362,0.00001935,-0.00006008,0.00002599,-0.00008716,0.00009302,0.0000
 1161,-0.00000350,-0.00038462,-0.00021925,0.00013517,0.00009870,0.00000
 136,-0.00005280,0.00001874,0.00011004,0.00013777,-0.00092958,0.0006586
 9,0.00043794,0.00129758,0.00115581,-0.00096080,0.00181865,0.00132329,-
 0.00113392,0.00001786,-0.00001669,-0.00005748,0.00000852,0.00003168,-0
 .00000581,-0.00000997,-0.00000627,0.00002311,-0.00000787,-0.00000536,0
 .00002383,0.00004311,-0.00003065,-0.00003918,-0.00000506,0.00002051,0.
 00002936,-0.00001323,-0.00001195,0.00001715,0.00000780,-0.00001449,0.0
 0011119,-0.00005232,0.00016916,0.00006383,0.00007910,-0.00001595,-0.00
 002970,0.00011639,0.00018707,-0.00014070,0.00019559,-0.00005737,-0.000
 01215,-0.00042924,0.00019680,0.00013267,-0.00008943,-0.00027247,-0.000
 12270,-0.00004989,-0.00010548,0.00017867,-0.00000154,-0.00001564,-0.00
 002038,-0.00159428,-0.01371713,0.00406421,0.03389420,-0.00789188,-0.00
 077238,0.28105059,-0.33563383,-0.01946757,-0.00317729,-0.00638534,0.00
 195850,0.00269142,-0.01697766,-0.00038679,-0.32742911,0.34069764,0.000
 02090,-0.00000043,-0.00002258,-0.00000258,-0.00002565,0.00003248,-0.00
 002690,0.00002653,0.00003288,0.00002025,0.00004463,-0.00009533,-0.0000
 0418,0.00001435,0.00002353,-0.00002244,-0.00002829,0.00003043,0.000029
 24,-0.00007976,-0.00009423,0.00022324,0.00019507,0.00003438,-0.0004827
 3,-0.00066895,-0.00024162,-0.00007697,-0.00010035,-0.00000778,-0.00001
 703,-0.00007504,0.00008135,0.00002024,0.00015849,0.00009419,0.00005313
 ,0.00001993,0.00001597,0.00001440,0.00003091,0.00000854,0.00000762,-0.
 00001129,0.,-0.00001403,-0.00001070,0.00001243,0.00001019,0.00001136,0
 .00000109,-0.00000313,0.00000450,0.00000044,0.00002074,0.00002500,-0.0
 0003744,0.00001437,0.00000064,0.00003799,0.00000125,0.00000102,-0.0000
 2095,0.00005848,0.00007786,-0.00002729,0.00010044,0.00002419,0.0002135
 5,0.00008995,0.00005807,-0.00004040,0.00012118,-0.00004177,0.00011351,
 0.00008100,-0.00005338,-0.00020641,-0.00022141,-0.00016237,0.00071178,
 -0.00011909,0.00001457,0.00011893,-0.00002127,-0.00000646,-0.00008014,
 0.00000016,-0.00000396,-0.00000265,0.00006467,-0.00007545,0.00000623,0
 .00007522,0.00001914,0.00010884,-0.00002152,-0.00000881,-0.00002158,-0
 .00006901,-0.00008156,-0.00024021,0.00001450,-0.00000250,0.00005038,0.
 00001420,0.00000559,0.00003097,-0.00001915,-0.00033323,0.00022478,0.00
 004542,-0.00000472,0.00004965,0.00002178,-0.00003941,0.00001124,-0.002
 89031,0.00148894,-0.00299422,0.00156014,-0.00014939,0.00205603,0.00411
 854,-0.00239458,-0.00106656,-0.00001568,0.00000459,-0.00000214,-0.0000
 0315,0.00000397,0.00001295,0.00003316,-0.00002350,-0.00002594,-0.00000
 312,0.00001422,-0.00004162,-0.00003652,0.00002827,0.00007230,-0.000010
 11,-0.00000467,-0.00000327,0.00002679,0.00002256,-0.00004120,-0.000008
 05,0.00001388,-0.00001319,0.00015784,0.00036073,-0.00025562,-0.0000090
 1,-0.00003813,-0.00003008,-0.00008543,-0.00049383,-0.00005474,0.000006
 28,-0.00000715,-0.00005403,0.00020955,0.00042259,-0.00033636,0.0000048
 8,0.00013574,0.00020408,-0.00005296,-0.00005741,0.00009757,0.00000338,
 -0.00000411,0.00001784,-0.00156471,0.00014335,-0.00403578,0.00522243,0
 .00728816,0.01300045,0.07104288,-0.02684474,-0.08261029,-0.00703283,0.
 00510052,0.00164359,-0.00532219,0.00486009,0.00043546,-0.10641425,0.02
 921633,0.06558087,-0.00000733,0.00000838,0.00006140,-0.00005952,0.0000
 0737,-0.00006918,0.00005678,-0.00004943,-0.00006234,-0.00006498,0.0000
 0612,0.00013074,0.00002661,-0.00000446,-0.00002458,-0.00001654,0.00001
 814,-0.00002522,-0.00004150,0.00005140,0.00018789,-0.00004432,-0.00040
 137,0.00013769,-0.00003153,0.00074244,-0.00004063,0.00014534,0.0000203
 1,-0.00009835,-0.00006792,0.00012018,-0.00013842,0.00008529,-0.0002386
 7,-0.00008489,0.00001041,-0.00003101,0.00001694,-0.00004105,-0.0000034
 3,-0.00002475,0.00001309,0.00000936,0.00000899,0.00001305,0.00003370,0
 .00001181,0.00007370,-0.00005786,-0.00009234,-0.00005807,-0.00007988,-
 0.00003674,-0.00006096,0.00018271,0.00012055,-0.00004415,-0.00006915,-
 0.00012596,-0.00000482,-0.00004681,0.00000631,0.00002132,-0.00012138,-
 0.00011041,-0.00043962,-0.00029629,-0.00073765,0.00006377,-0.00004069,
 0.00003473,0.00094788,-0.00026992,0.00083146,0.00012740,0.00007234,0.0
 0010694,-0.00121731,-0.00092350,-0.00051600,-0.00034489,0.00063844,0.0
 0006159,0.00000317,0.00008208,0.00005095,0.00000893,0.00002093,0.00002
 141,-0.00008394,0.00010118,-0.00001864,-0.00008968,-0.00007548,-0.0001
 0142,0.00004045,0.00003786,0.00002012,0.00014382,0.00008149,0.00016988
 ,0.00001234,-0.00007945,0.00002330,0.00001481,-0.00000940,-0.00002579,
 0.00010717,0.00034740,-0.00008914,-0.00010016,0.00004273,0.00002109,-0
 .00003081,0.00010567,-0.00004396,0.00148330,-0.00224578,-0.00062820,-0
 .00195938,0.00109853,0.00080313,-0.00202016,0.00145873,0.00186858,-0.0
 0000200,0.00002088,0.00004369,0.00000644,-0.00000345,-0.00002029,-0.00
 008761,0.00003193,0.00004435,0.00001084,-0.00002817,0.00007552,0.00005
 581,-0.00004424,-0.00014607,0.00000626,0.00000934,0.00001438,-0.000033
 19,-0.00003388,0.00007462,0.00000806,0.00000931,0.00004570,-0.00020934
 ,-0.00054360,0.00042927,-0.00000935,0.00006445,0.00001691,0.00016804,0
 .00076866,-0.00003441,-0.00003827,0.00008120,-0.00000362,-0.00034539,-
 0.00068221,0.00060899,0.00005196,-0.00024526,-0.00031274,0.00003739,0.
 00010491,-0.00015709,0.00000894,0.00001051,-0.00002700,0.00755253,0.00
 659700,-0.00582516,-0.00751219,0.00022646,0.00824293,-0.24677573,-0.04
 358865,0.09606364,0.00404862,-0.00380080,-0.00126183,0.00415735,-0.002
 74676,-0.00227450,-0.09034672,0.00834011,0.04659089,0.38679512,-0.0000
 4724,0.00001891,0.00001858,-0.00001542,0.00003828,-0.00002475,0.000045
 07,-0.00003579,-0.00005852,-0.00004020,0.00003091,0.00007590,0.0000019
 5,-0.00005258,-0.00003535,0.00002971,0.00001351,0.00002918,0.00004710,
 0.00022016,0.00035665,-0.00047268,-0.00080069,0.00019264,0.00044384,0.
 00156343,-0.00002745,0.00044921,0.00015495,-0.00025667,0.00001057,0.00
 017841,-0.00023099,-0.00024169,-0.00033872,-0.00001756,-0.00013203,-0.
 00009296,-0.00006419,-0.00004824,-0.00004040,-0.00002837,-0.00000447,-
 0.00001792,0.00000965,0.00001499,0.00000986,0.00000018,0.00003247,-0.0
 0001377,-0.00002708,-0.00001945,-0.00003245,-0.00001212,-0.00000466,0.
 00004285,0.00006766,-0.00001671,-0.00001843,-0.00005501,-0.00000337,0.
 00000304,0.00002316,0.00004965,0.00000581,0.00010222,-0.00028263,0.000
 04739,-0.00032633,0.00001537,-0.00002894,0.00002676,0.00019064,-0.0001
 2587,0.00014499,-0.00001931,-0.00002012,0.00000200,-0.00032691,0.00008
 601,-0.00028204,0.00010693,0.00004862,0.00014410,0.00009645,0.00014895
 ,0.00006997,-0.00001509,0.00001631,0.00000268,-0.00001898,0.00002500,-
 0.00000117,-0.00003456,-0.00002262,-0.00002890,0.00001632,0.00002319,0
 .00000954,0.00002147,0.00003131,0.00006719,-0.00000864,-0.00002186,-0.
 00001380,0.00002704,0.00000280,-0.00000889,-0.00007344,0.00005219,0.00
 000323,-0.00001590,0.00001504,-0.00000861,-0.00000258,0.00004928,0.000
 00593,0.00046193,-0.00065323,0.00018713,-0.00022165,0.00047655,-0.0001
 1321,-0.00046113,0.00078253,0.00015660,0.00000415,0.00000359,0.0000008
 3,0.00000721,0.00001167,-0.00001176,-0.00003843,0.00001216,0.00002884,
 -0.00000072,-0.00001444,0.00004386,0.00004860,-0.00002666,-0.00007930,
 0.00000122,0.00001211,0.00001693,-0.00002189,-0.00002053,0.00003783,0.
 00002173,0.00002059,0.00005472,-0.00009194,-0.00012879,0.00015629,0.00
 004445,0.00002484,-0.00001498,0.00012318,0.00036461,-0.00011954,0.0000
 8247,0.00001257,-0.00000204,-0.00045664,-0.00007901,0.00027077,-0.0000
 1379,-0.00016920,-0.00015580,0.00000617,0.00000243,-0.00000267,0.00000
 134,-0.00000270,-0.00002257,0.00326517,-0.00225961,-0.00015836,-0.0269
 1167,0.00139148,0.01199272,-0.07183709,-0.15496453,0.06035121,-0.00675
 510,-0.00993358,0.00843260,0.00053478,-0.00505137,0.00165237,0.0240655
 7,0.03407090,-0.01218624,-0.01748284,0.57397382,0.00002069,0.00000197,
 -0.00004904,0.00001423,-0.00003607,0.00004852,-0.00004525,0.00004979,0
 .00005656,0.00004226,0.00006299,-0.00014728,-0.00001172,0.00000665,0.0
 0003196,-0.00000076,-0.00003751,0.00003840,0.00003782,-0.00011046,-0.0
 0021041,0.00023727,0.00040831,-0.00002271,-0.00035982,-0.00090476,-0.0
 0022300,-0.00019581,-0.00011228,0.00009017,-0.00000397,-0.00011481,0.0
 0013493,0.00002608,0.00022917,0.00010321,0.00005943,0.00004874,0.00001
 222,0.00003170,0.00002345,0.00001676,0.00000078,-0.00001936,0.00000085
 ,-0.00001758,-0.00002272,0.00000163,-0.00003464,0.00003689,0.00005590,
 0.00003033,0.00004395,0.00001716,0.00003536,-0.00009159,-0.00008546,0.
 00003898,0.00004475,0.00009889,0.00000447,0.00003049,-0.00001861,-0.00
 000355,0.00008371,0.00007242,0.00029973,0.00016061,0.00056534,-0.00000
 222,0.00004992,-0.00003436,-0.00059210,0.00021652,-0.00056135,-0.00003
 621,-0.00003096,-0.00007308,0.00092698,0.00059264,0.00040835,0.0001301
 9,-0.00042034,-0.00007756,-0.00001855,-0.00004579,-0.00008189,-0.00000
 480,-0.00001384,-0.00001194,0.00004711,-0.00004961,0.00001063,0.000036
 75,0.00003145,0.00004826,-0.00001930,-0.00001518,-0.00001478,-0.000058
 52,-0.00001905,-0.00010198,-0.00000714,0.00003433,0.00000065,-0.000004
 38,0.00000404,0.00001629,-0.00006261,-0.00014546,-0.00000084,0.0000442
 0,-0.00002384,-0.00000575,0.00001253,-0.00002898,0.00001335,-0.0005605
 1,0.00097816,0.00041091,0.00091977,-0.00063037,-0.00042080,0.00067582,
 -0.00060012,-0.00054152,-0.00000355,-0.00000822,-0.00001369,-0.0000041
 2,0.00000028,0.00001309,0.00003436,-0.00002141,-0.00002551,-0.00000190
 ,0.00001419,-0.00004293,-0.00003986,0.00002400,0.00007762,-0.00000678,
 -0.00000606,-0.00000867,0.00002465,0.00002117,-0.00003865,-0.00001351,
 -0.00001419,-0.00002666,0.00011886,0.00027171,-0.00021295,-0.00001823,
 -0.00003711,-0.00001186,-0.00011098,-0.00042061,0.00003165,-0.00000167
 ,-0.00004171,-0.00000940,0.00033813,0.00033307,-0.00026441,-0.00001519
 ,0.00013096,0.00018776,-0.00003009,-0.00003981,0.00005741,0.00000144,-
 0.00000210,0.00001858,-0.00407473,-0.00181979,0.00314833,0.01533889,0.
 00073178,0.00046750,0.10635410,0.05244878,-0.11849313,0.00039536,0.004
 48310,-0.00230103,-0.00293727,0.00386729,0.00041478,0.04073536,-0.0071
 8387,0.01054668,-0.14002016,-0.17035438,0.15796633,0.00000606,-0.00000
 627,-0.00000524,0.00001004,-0.00000174,-0.00000099,-0.00000726,0.00000
 634,0.00001240,0.00000886,-0.00002429,0.00000015,-0.00000156,0.0000061
 6,0.00000166,0.00000292,0.00000316,-0.00001257,-0.00001084,-0.00002983
 ,-0.00005762,0.00005008,0.00013016,-0.00002135,-0.00007085,-0.00025755
 ,0.00002070,-0.00003997,-0.00000523,0.00007409,0.00000502,-0.00000759,
 -0.00000205,0.00002030,0.00004878,-0.00000177,0.00000031,0.00000800,-0
 .00002069,0.00000901,-0.00000087,0.00000244,-0.00000313,0.00000705,-0.
 00000280,0.00000013,-0.00000468,-0.00000517,-0.00001818,0.00000810,0.0
 0001685,0.00001260,0.00001726,0.00000854,0.00000696,-0.00003954,-0.000
 02080,0.00000437,0.00001033,0.00001536,0.00000054,0.00000680,0.0000018
 3,-0.00002260,0.00001369,-0.00000152,0.00006544,0.00004021,0.00007403,
 -0.00003223,-0.00000833,-0.00000055,-0.00014701,0.00003793,-0.00011948
 ,-0.00004121,-0.00001593,0.00000498,0.00019640,0.00015573,0.00001633,0
 .00006906,-0.00009620,-0.00000902,-0.00000373,-0.00001553,0.00001272,-
 0.00000017,-0.00000440,-0.00000387,0.00001329,-0.00001615,0.00000516,0
 .00001224,0.00001877,0.00001004,-0.00000807,-0.00000497,0.00000041,-0.
 00003224,-0.00000631,0.00000441,-0.00000896,0.00001675,-0.00002043,0.0
 0000371,0.00000095,-0.00000067,-0.00002751,-0.00005122,0.00000609,0.00
 002317,-0.00000311,-0.00001460,0.00000362,-0.00000264,0.00002490,-0.00
 011809,0.00028599,0.00029850,0.00025406,-0.00013847,-0.00028331,0.0001
 7401,-0.00010305,-0.00030998,0.00000485,-0.00000639,-0.00001516,-0.000
 00150,0.00000019,0.00000333,0.00001557,-0.00000480,-0.00000656,-0.0000
 0140,0.00000492,-0.00001349,-0.00000826,0.00000594,0.00002555,-0.00000
 054,-0.00000176,-0.00000227,0.00000504,0.00000550,-0.00001249,-0.00000
 183,-0.00000556,-0.00000187,0.00003100,0.00008369,-0.00006396,0.000002
 57,-0.00000983,0.00000215,-0.00002387,-0.00010565,0.00000596,0.0000086
 5,-0.00000985,0.00000804,0.00002483,0.00010985,-0.00009329,-0.00001158
 ,0.00003311,0.00003956,-0.00000457,-0.00001908,0.00002868,-0.00000221,
 -0.00000169,0.00000493,-0.00076399,-0.00101234,0.00091518,-0.00363104,
 0.00207712,0.00380985,0.00511069,-0.04968093,0.01711437,-0.00112566,-0
 .00146649,0.00097065,0.00055407,0.00088463,-0.00078943,0.00140581,0.00
 516758,-0.00552956,-0.05411753,0.09587033,-0.01769617,0.05217231,0.000
 00374,-0.00000380,0.00000603,0.00000311,0.00000016,-0.00000863,-0.0000
 0035,-0.00000356,0.00000185,-0.00000066,-0.00002869,0.00001986,0.00000
 325,0.00000696,-0.00000118,-0.00000026,0.00000767,-0.00001709,-0.00001
 790,-0.00002077,-0.00002934,0.00004390,0.00007521,-0.00000971,-0.00005
 876,-0.00011791,0.00002490,-0.00002607,0.00000252,0.00005599,-0.000001
 99,0.00000371,-0.00001504,0.00003064,0.00002066,-0.00001554,-0.0000021
 8,0.00000186,-0.00001550,0.00000381,-0.00000058,0.00000088,-0.00000107
 ,0.00000985,-0.00000367,0.00000122,-0.00000149,-0.00000399,-0.00001397
 ,0.00000415,0.00000858,0.00000749,0.00001026,0.00000476,0.00000302,-0.
 00002425,-0.00000872,-0.00000151,0.00000708,0.00000531,0.00000042,-0.0
 0000018,0.00000346,-0.00001350,0.00001025,0.00000032,0.00005526,0.0000
 2564,0.00006892,-0.00002468,0.00000541,0.00000176,-0.00012956,0.000044
 94,-0.00009121,-0.00001582,0.00000797,0.00000468,0.00017177,0.00012493
 ,-0.00000854,0.00005953,-0.00008691,-0.00002206,-0.00000636,-0.0000101
 9,0.00002008,0.00000346,-0.00000399,-0.00000156,0.00000681,-0.00001078
 ,-0.00000075,0.00002129,0.00001359,0.00001371,-0.00000812,-0.00001496,
 -0.00000696,-0.00001142,-0.00001562,-0.00003456,0.00000831,0.00001596,
 0.00000928,-0.00001711,-0.00000242,0.00000746,0.00001079,-0.00003627,0
 .00000518,0.00000403,-0.00001144,0.00000399,0.00000040,-0.00003449,-0.
 00001493,-0.00014533,0.00037337,0.00011824,0.00021985,-0.00023444,-0.0
 0015069,0.00021835,-0.00022415,-0.00022348,-0.00000380,-0.00000357,0.0
 0000140,-0.00000104,-0.00000181,0.00000158,0.00000751,-0.00000216,-0.0
 0000382,-0.00000031,0.00000286,-0.00000766,-0.00000501,0.00000547,0.00
 001435,-0.00000035,-0.00000232,-0.00000238,0.00000326,0.00000342,-0.00
 000693,0.00000144,-0.00000073,-0.00000203,0.00001707,0.00003823,-0.000
 03707,-0.00000116,-0.00000287,0.00000203,-0.00000863,-0.00005593,0.000
 00059,0.00000271,-0.00000100,0.00000856,0.00000912,0.00005725,-0.00006
 021,-0.00000486,0.00002733,0.00002250,-0.00000404,-0.00000641,0.000011
 86,-0.00000099,0.00000016,0.00000329,-0.00067814,-0.00084912,0.0008522
 2,-0.00096716,0.00428064,0.00140935,-0.00573362,-0.02423173,0.01296256
 ,-0.00151073,-0.00067586,0.00063125,0.00034296,0.00054423,-0.00059733,
 0.00735713,0.00072291,-0.00581796,0.05269157,-0.43901928,0.11795751,-0
 .05189674,0.45928502,-0.00000593,-0.00000285,0.00000774,0.00000214,0.0
 0001193,-0.00000476,0.00000970,-0.00001187,-0.00001253,-0.00000527,-0.
 00002352,0.00003379,-0.00000093,-0.00000373,-0.00000626,0.00000380,0.0
 0001306,-0.00000989,-0.00001061,0.00002407,0.00003562,-0.00003654,-0.0
 0008396,0.00001287,0.00003343,0.00014425,0.00000969,0.00003413,0.00000
 578,-0.00002873,-0.00000278,0.00000394,-0.00000241,-0.00000390,-0.0000
 3435,-0.00003120,-0.00001357,-0.00000606,0.00000128,-0.00000522,-0.000
 00642,-0.00000108,-0.00000200,0.00000705,-0.00000269,0.00000601,0.0000
 0601,-0.00000435,0.00000158,-0.00000836,-0.00001067,-0.00000374,-0.000
 00659,-0.00000139,-0.00000887,0.00000734,0.00002525,-0.00001008,-0.000
 00894,-0.00002687,-0.00000073,-0.00000603,0.00000575,0.00000013,-0.000
 03120,-0.00002309,-0.00004748,-0.00002968,-0.00012730,-0.00002082,-0.0
 0002021,0.00002117,0.00010290,-0.00000867,0.00011871,0.00000202,0.0000
 1733,0.00004629,-0.00011941,-0.00010518,-0.00012113,-0.00001957,0.0000
 6927,0.00000476,0.00000387,0.00000065,0.00002355,0.00000121,0.00000226
 ,0.00000298,-0.00002067,0.00001638,-0.00000464,-0.00000494,-0.00000218
 ,-0.00001792,0.00000389,-0.00000462,0.00000704,0.00001237,-0.00000694,
 0.00004552,0.00000601,-0.00000147,-0.00000671,-0.00001407,-0.00000082,
 -0.00000805,0.00004616,0.00004867,-0.00001163,-0.00001315,0.00000274,-
 0.00000411,-0.00000210,-0.00002562,-0.00000950,0.00036807,-0.00017169,
 0.00023194,-0.00026360,-0.00001952,-0.00016461,-0.00043890,0.00009619,
 0.00000504,0.00000363,0.00000016,0.00000064,-0.00000005,-0.00000319,-0
 .00000318,0.00000096,0.00000699,0.00000290,-0.00000037,-0.00000153,0.0
 0000704,0.00000778,-0.00000172,-0.00001007,0.00000442,-0.00000062,-0.0
 0000130,-0.00000724,-0.00000500,0.00000527,0.00000299,0.00000895,-0.00
 000637,-0.00002556,-0.00006977,0.00003320,0.00000539,0.00000912,0.0000
 0718,0.00001196,0.00006500,0.00000936,-0.00000495,0.00000590,0.0000099
 9,-0.00003925,-0.00008123,0.00002818,-0.00000041,0.00000102,-0.0000300
 1,0.00001989,0.00001119,-0.00001777,-0.00000370,0.00000084,-0.00000300
 ,0.00074600,0.00083787,-0.00028884,0.00468510,-0.00039543,0.00503694,0
 .00431086,0.03246927,-0.00541030,0.00021223,0.00026857,-0.00140597,-0.
 00106994,-0.00052432,-0.00045034,-0.00625225,-0.00539652,-0.00300971,-
 0.00376889,0.09999375,-0.05105186,0.00159888,-0.12704573,0.05655056\\-
 0.00000041,0.00000053,-0.00000029,0.00000106,-0.00000053,0.00000026,0.
 ,0.00000005,-0.00000034,-0.00000111,-0.00000080,-0.00000143,-0.0000004
 2,0.00000018,0.00000020,0.00000080,-0.00000036,-0.00000016,-0.00000062
 ,0.00000034,0.00000086,-0.00000299,-0.00000371,0.00000429,0.00000054,-
 0.00000035,-0.00000214,0.00000019,-0.00000138,-0.00000944,-0.00000217,
 0.00000001,0.00000441,0.00000204,-0.00000409,0.00000813,0.00000367,0.0
 0000600,-0.00001745,0.00000055,0.00000086,0.00001145,-0.00000024,0.000
 00019,-0.00000023,-0.00000022,-0.00000004,0.00000028,0.00000001,-0.000
 00131,-0.00000009,-0.00000024,-0.00000021,0.00000021,-0.00000354,0.000
 00146,0.00000150,-0.00000006,-0.00000018,0.00000011,0.00000032,-0.0000
 0011,-0.00000013,0.00000114,-0.00000895,0.00000197,0.00000174,0.000006
 80,0.00000445,0.00000213,0.00000060,-0.00000270,-0.00001575,-0.0000042
 4,-0.00000973,0.00000249,0.00000233,0.00000380,0.00001052,-0.00000238,
 0.00000258,-0.00000114,0.00000595,-0.00000030,0.00000164,-0.00000338,-
 0.00000160,-0.00000027,-0.00000018,0.00000063,-0.00000025,-0.00000033,
 -0.00000005,0.00000003,-0.00000037,0.00000025,-0.00000014,-0.00000027,
 -0.00000003,-0.00000122,0.00000285,-0.00000087,0.00000060,-0.00000383,
 0.00000038,-0.00000044,-0.00000041,-0.00000034,0.00000089,0.00000150,-
 0.00000086,-0.00000055,0.00000023,0.00000009,0.00000005,0.00000009,0.0
 0000035,-0.00000137,-0.00000984,-0.00000595,-0.00000278,0.00001055,0.0
 0000584,-0.00000008,0.00000225,0.00000493,-0.00000014,-0.00000042,-0.0
 0000016,0.00000057,0.00000011,0.00000019,0.00000042,0.00000073,-0.0000
 0049,0.00000066,0.00000035,0.00000006,0.00000025,0.00000018,0.00000070
 ,0.00000037,0.00000012,0.00000012,0.00000047,-0.00000018,0.00000040,-0
 .00000520,0.00000141,0.00000044,-0.00000185,0.00000111,-0.00000221,0.0
 0000471,-0.00000015,0.00000189,-0.00000601,-0.00000053,0.00000115,0.00
 000311,-0.00000010,-0.00000097,0.00000288,0.00000082,-0.00000038,0.000
 00622,-0.00000087,0.00000160,-0.00000070,0.00000024,-0.00000027,0.0000
 0070,0.00000024,0.00000011,0.00000155,-0.00000165,0.00000256,0.0000033
 9,-0.00000288,0.00000183,0.00000434,-0.00000197,-0.00000376,-0.0000065
 9,0.00000193,-0.00000459,0.00000145,0.00000313,0.00000057,-0.00000190,
 0.00000283,-0.00000185,-0.00000303,-0.00000063,0.00000106,-0.00000005,
 0.00000072,-0.00000083\\\@


 K N O W I N G  IS A BARRIER WHICH PREVENTS LEARNING

                     -- TEACHING OF THE BENE GESSERIT
 Job cpu time:       0 days  6 hours 45 minutes 30.0 seconds.
 Elapsed time:       0 days  3 hours 24 minutes 23.0 seconds.
 File lengths (MBytes):  RWF=   6306 Int=      0 D2E=      0 Chk=     56 Scr=      1
 Normal termination of Gaussian 16 at Wed Apr  2 14:58:10 2025.
